218
Energy = -6461.463311649
Ba   22.4564040   10.7437790    5.2112780 
Ba   26.2610570   32.3037800    6.8630450 
C    22.4752980   18.8261930    4.3684900 
C    21.9811170   24.2938060    8.3932650 
C    26.2421630   18.8261930    7.7058330 
C    26.7363430   24.2938060    3.6810590 
H    21.8914970   18.1019060    4.4077320 
H    21.3973180   25.0180930    8.4325060 
H    26.8259620   18.1019060    7.6665920 
H    27.3201430   25.0180930    3.6418170 
C    23.3835660   16.3079830    3.2061350 
C    22.8893850   26.8120160    7.2309100 
C    25.3338950   16.3079830    8.8681880 
C    25.8280740   26.8120160    4.8434140 
H    22.6790640   16.6605110    2.7144610 
H    22.1848830   26.4594880    6.7392350 
H    26.0383970   16.6605110    9.3598630 
H    26.5325760   26.4594880    5.3350880 
O    15.8095990   19.6584070    6.5692370 
O    15.3154190   23.4615920   10.5940110 
O    27.8654190   34.2415920   10.5940110 
O    20.3578610    8.8784080    5.5050870 
O    32.9078600   19.6584070    5.5050870 
O    28.3596000   30.4384080    6.5692370 
O    20.8520410   12.6815920    1.4803120 
O    33.4020420   23.4615920    1.4803120 
C    17.7400130   20.2513080    5.3408760 
C    17.2458320   22.8686900    9.3656500 
C    29.7958340   33.6486890    9.3656500 
C    18.4274460    9.4713080    6.7334480 
C    30.9774480   20.2513080    6.7334480 
C    30.2900120   31.0313070    5.3408760 
C    18.9216270   12.0886920    2.7086730 
C    31.4716260   22.8686900    2.7086730 
C    16.2691670   20.3483280    5.6065110 
C    15.7749870   22.7716710    9.6312850 
C    28.3249870   33.5516700    9.6312850 
C    19.8982930    9.5683280    6.4678130 
C    32.4482920   20.3483280    6.4678130 
C    28.8191680   31.1283260    5.6065110 
C    20.3924730   11.9916720    2.4430380 
C    32.9424740   22.7716710    2.4430380 
C    18.5608270   19.3824390    6.0355520 
C    18.0666470   23.7375600   10.0603260 
C    30.1566330   19.3824390    6.0387710 
C    30.6508120   23.7375600    2.0139970 
H    18.1845860   18.8166410    6.6718610 
H    17.6904070   24.3033580   10.6966350 
H    30.5328730   18.8166410    5.4024630 
H    31.0270540   24.3033580    1.3776880 
C    23.5600570   14.9604840    3.1996960 
C    23.0658780   28.1595150    7.2244700 
C    25.1574040   14.9604840    8.8746280 
C    25.6515850   28.1595150    4.8498530 
H    23.0149420   14.4128380    2.6820370 
H    22.5207610   28.7071610    6.7068120 
H    25.7025180   14.4128380    9.3922860 
H    26.1966970   28.7071610    5.3675120 
C    19.6804870   21.0554940    4.1736910 
C    19.1863060   22.0645050    8.1984650 
C    29.0369740   21.0554940    7.9006330 
C    29.5311550   22.0645050    3.8758580 
H    20.0341070   21.6071070    3.5130970 
H    19.5399270   21.5128920    7.5378710 
H    28.6833530   21.6071070    8.5612270 
H    29.1775320   21.5128920    4.5364520 
C    22.8014370   21.1891690    4.4924530 
C    22.3072570   21.9308320    8.5172280 
C    25.9160230   21.1891690    7.5818700 
C    26.4102040   21.9308320    3.5570960 
C    24.5390170   23.4292530    4.1600070 
C    24.0448360   19.6907460    8.1847810 
C    24.1784460   23.4292530    7.9143170 
C    24.6726250   19.6907460    3.8895420 
C    21.9818310   20.1025430    4.6260760 
C    21.4876500   23.0174560    8.6508500 
C    26.7356300   20.1025430    7.4482480 
C    27.2298110   23.0174560    3.4234730 
O    15.6425490   21.2279760    5.0269430 
O    15.1483690   21.8920230    9.0517180 
O    27.6983680   32.6720240    9.0517180 
O    20.5249120   10.4479760    7.0473800 
O    33.0749090   21.2279760    7.0473800 
O    28.1925490   32.0079770    5.0269430 
O    21.0190910   11.1120240    3.0226060 
O    33.5690920   21.8920230    3.0226060 
C    25.0362970   22.1378080    3.9531340 
C    24.5421160   20.9821910    7.9779080 
C    23.6811640   22.1378080    8.1211900 
C    24.1753440   20.9821910    4.0964150 
C    24.5782320   14.4128600    3.9837220 
C    24.0840510    7.1471400    8.0084960 
C    24.5782320   35.9728580    3.9837220 
C    24.0840510   28.7071380    8.0084960 
C    24.6334100    7.1471400    4.0658270 
C    24.1392310   14.4128600    8.0906020 
C    24.6334100   28.7071380    4.0658270 
C    24.1392310   35.9728580    8.0906020 
C    23.7984700   18.5998120    4.0585820 
C    23.3042890   24.5201870    8.0833570 
C    24.9189910   18.5998120    8.0157410 
C    25.4131720   24.5201870    3.9909670 
C    23.2012940   23.5931070    4.6292960 
C    22.7071130   19.5268920    8.6540700 
C    25.5161670   23.5931070    7.4450280 
C    26.0103450   19.5268920    3.4202530 
H    22.8806080   24.4463440    4.8186690 
H    22.3864270   18.6736550    8.8434440 
H    25.8368530   24.4463440    7.2556540 
H    26.3310340   18.6736550    3.2308800 
C    25.4580990   15.2795720    4.6880580 
C    24.9639190   27.8404270    8.7128320 
C    23.2593610   15.2795720    7.3862660 
C    23.7535420   27.8404270    3.3614910 
H    26.1685620   14.9328220    5.1771800 
H    25.6743810   28.1871780    9.2019540 
H    22.5488990   14.9328220    6.8971430 
H    23.0430790   28.1871780    2.8723690 
C    18.3538950   21.0943030    4.4296670 
C    17.8597160   22.0256960    8.4544410 
C    30.3635650   21.0943030    7.6446570 
C    30.8577440   22.0256960    3.6198820 
H    17.8310530   21.7136780    3.9732740 
H    17.3368720   21.4063210    7.9980480 
H    30.8864080   21.7136780    8.1010500 
H    31.3805890   21.4063210    4.0762750 
C    24.7498970   12.9597160    4.0779020 
C    24.2557160    8.6002840    8.1026760 
C    24.7498970   34.5197140    4.0779020 
C    24.2557160   30.1602820    8.1026760 
C    24.4617440    8.6002840    3.9716470 
C    23.9675640   12.9597160    7.9964220 
C    24.4617440   30.1602820    3.9716470 
C    23.9675640   34.5197140    7.9964220 
C    20.5385930   20.1974090    4.8917110 
C    20.0444150   22.9225900    8.9164850 
C    28.1788650   20.1974090    7.1826130 
C    28.6730460   22.9225900    3.1578380 
C    25.2435460   16.6335390    4.6365400 
C    24.7493650   26.4864600    8.6613140 
C    23.4739150   16.6335390    7.4377830 
C    23.9680960   26.4864600    3.4130090 
H    25.8134840   17.2024210    5.1026730 
H    25.3193040   25.9175780    9.1274480 
H    22.9039760   17.2024210    6.9716500 
H    23.3981550   25.9175780    2.9468760 
C    22.3972210   22.5301990    4.7999460 
C    21.9030420   20.5898000    8.8247210 
C    26.3202380   22.5301990    7.2743770 
C    26.8144190   20.5898000    3.2496030 
H    21.5411470   22.6697790    5.1336640 
H    21.0469680   20.4502200    9.1584390 
H    27.1763110   22.6697790    6.9406590 
H    27.6704920   20.4502200    2.9158850 
O    24.0530030   12.2072720    3.2938760 
O    23.5588230    9.3527280    7.3186500 
O    24.0530030   33.7672690    3.2938760 
O    23.5588230   30.9127270    7.3186500 
O    25.1586360    9.3527280    4.7556730 
O    24.6644570   12.2072720    8.7804480 
O    25.1586360   30.9127270    4.7556730 
O    24.6644570   33.7672690    8.7804480 
O    25.6005150   12.4875520    4.8160450 
O    25.1063350    9.0724480    8.8408190 
O    25.6005150   34.0475500    4.8160450 
O    25.1063350   30.6324460    8.8408190 
O    23.6111260    9.0724480    3.2335040 
O    23.1169450   12.4875520    7.2582780 
O    23.6111260   30.6324460    3.2335040 
O    23.1169450   34.0475500    7.2582780 
C    19.9185050   19.3263840    5.8125790 
C    19.4243260   23.7936150    9.8373540 
C    28.7989560   19.3263840    6.2617440 
C    29.2931350   23.7936150    2.2369690 
H    20.4331000   18.7079120    6.2768770 
H    19.9389190   24.4120860   10.3016520 
H    28.2843610   18.7079120    5.7974460 
H    28.7785420   24.4120860    1.7726720 
C    24.1896170   17.1725410    3.8983960 
C    23.6954360   25.9474580    7.9231710 
C    24.5278430   17.1725410    8.1759270 
C    25.0220220   25.9474580    4.1511520 
H    18.1244748    8.4243371    6.7460994 
H    18.1971401    9.9297008    7.6951832 
H    17.8737167    9.9957860    5.9547270 
H    24.5502692    6.7772263    7.0953114 
H    24.5601783    6.6662582    8.8629884 
H    23.0216794    6.9033905    8.0011234 
H    23.6813200    6.6464971    3.8898027 
H    25.3636518    6.8184226    3.3263711 
H    24.9993366    6.8816879    5.0576617 
H    18.5828847   13.1034653    2.4998939 
H    18.3881484   11.3784344    2.0769811 
H    18.7425190   11.8553951    3.7582411 
H    14.3889681   23.2423009   10.7172955 
H    15.5970424   18.7772913    6.2529264 
H    33.1650667   23.0502600    0.6458997 
H    32.4724636   18.8028272    5.5020731 
H    24.1976060   36.2319380    2.9957435 
H    23.8628232   36.3100395    4.7337879 
H    25.5336412   36.4677232    4.1580835 
H    23.1601567   36.4513928    8.1133622 
H    24.7055997   36.3267719    7.2291662 
H    24.6747328   36.2111433    9.0096004 
H    29.9494614   34.1163990    8.3931550 
H    30.2365203   32.6517896    9.3750128 
H    30.2681652   34.2510582   10.1416365 
H    30.5483761   30.0070360    5.0721430 
H    30.8480217   31.3155997    6.2330101 
H    30.5544711   31.7097125    4.5297486 
H    23.5107835   30.0730325    2.4598222 
H    24.6370918   33.2257508    2.7579722 
H    26.9192346   34.0946238   10.6627763 
H    20.5878271   12.2878107    0.6456119 
H    25.7109630    9.6115123    8.3256166 
H    24.1704613   11.4099653    8.9850616 
H    23.5282744   33.4771624    6.6047744 
H    25.6062384   11.5308567    4.7366807 
