 Entering Gaussian System, Link 0=g16
 Initial command:
 /opt/bwhpc/common/chem/gaussian/g16.C.01/x86_64-Intel-avx2-source/g16/l1.exe "/tmp/ka_sy8018.17429138/spectrum.com.17429138.250523_110407/Gau-1122401.inp" -scrdir="/tmp/ka_sy8018.17429138/spectrum.com.17429138.250523_110407/"
 Entering Link 1 = /opt/bwhpc/common/chem/gaussian/g16.C.01/x86_64-Intel-avx2-source/g16/l1.exe PID=   1122403.
  
 Copyright (c) 1988-2019, Gaussian, Inc.  All Rights Reserved.
  
 This is part of the Gaussian(R) 16 program.  It is based on
 the Gaussian(R) 09 system (copyright 2009, Gaussian, Inc.),
 the Gaussian(R) 03 system (copyright 2003, Gaussian, Inc.),
 the Gaussian(R) 98 system (copyright 1998, Gaussian, Inc.),
 the Gaussian(R) 94 system (copyright 1995, Gaussian, Inc.),
 the Gaussian 92(TM) system (copyright 1992, Gaussian, Inc.),
 the Gaussian 90(TM) system (copyright 1990, Gaussian, Inc.),
 the Gaussian 88(TM) system (copyright 1988, Gaussian, Inc.),
 the Gaussian 86(TM) system (copyright 1986, Carnegie Mellon
 University), and the Gaussian 82(TM) system (copyright 1983,
 Carnegie Mellon University). Gaussian is a federally registered
 trademark of Gaussian, Inc.
  
 This software contains proprietary and confidential information,
 including trade secrets, belonging to Gaussian, Inc.
  
 This software is provided under written license and may be
 used, copied, transmitted, or stored only in accord with that
 written license.
  
 The following legend is applicable only to US Government
 contracts under FAR:
  
                    RESTRICTED RIGHTS LEGEND
  
 Use, reproduction and disclosure by the US Government is
 subject to restrictions as set forth in subparagraphs (a)
 and (c) of the Commercial Computer Software - Restricted
 Rights clause in FAR 52.227-19.
  
 Gaussian, Inc.
 340 Quinnipiac St., Bldg. 40, Wallingford CT 06492
  
  
 ---------------------------------------------------------------
 Warning -- This program may not be used in any manner that
 competes with the business of Gaussian, Inc. or will provide
 assistance to any competitor of Gaussian, Inc.  The licensee
 of this program is prohibited from giving any competitor of
 Gaussian, Inc. access to this program.  By using this program,
 the user acknowledges that Gaussian, Inc. is engaged in the
 business of creating and licensing software in the field of
 computational chemistry and represents and warrants to the
 licensee that it is not a competitor of Gaussian, Inc. and that
 it will not use this program in any manner prohibited above.
 ---------------------------------------------------------------
  

 Cite this work as:
 Gaussian 16, Revision C.01,
 M. J. Frisch, G. W. Trucks, H. B. Schlegel, G. E. Scuseria, 
 M. A. Robb, J. R. Cheeseman, G. Scalmani, V. Barone, 
 G. A. Petersson, H. Nakatsuji, X. Li, M. Caricato, A. V. Marenich, 
 J. Bloino, B. G. Janesko, R. Gomperts, B. Mennucci, H. P. Hratchian, 
 J. V. Ortiz, A. F. Izmaylov, J. L. Sonnenberg, D. Williams-Young, 
 F. Ding, F. Lipparini, F. Egidi, J. Goings, B. Peng, A. Petrone, 
 T. Henderson, D. Ranasinghe, V. G. Zakrzewski, J. Gao, N. Rega, 
 G. Zheng, W. Liang, M. Hada, M. Ehara, K. Toyota, R. Fukuda, 
 J. Hasegawa, M. Ishida, T. Nakajima, Y. Honda, O. Kitao, H. Nakai, 
 T. Vreven, K. Throssell, J. A. Montgomery, Jr., J. E. Peralta, 
 F. Ogliaro, M. J. Bearpark, J. J. Heyd, E. N. Brothers, K. N. Kudin, 
 V. N. Staroverov, T. A. Keith, R. Kobayashi, J. Normand, 
 K. Raghavachari, A. P. Rendell, J. C. Burant, S. S. Iyengar, 
 J. Tomasi, M. Cossi, J. M. Millam, M. Klene, C. Adamo, R. Cammi, 
 J. W. Ochterski, R. L. Martin, K. Morokuma, O. Farkas, 
 J. B. Foresman, and D. J. Fox, Gaussian, Inc., Wallingford CT, 2019.
 
 ******************************************
 Gaussian 16:  ES64L-G16RevC.01  3-Jul-2019
                23-May-2025 
 ******************************************
 %chk=spectrum.chk
 %nproc=48
 Will use up to   48 processors via shared memory.
 %mem=128GB
 ----------------------------------------------------------------------
 #p CAM-B3LYP/GenECP TD(Singlets,Nstates=10) Nosymm EmpiricalDispersion
 =GD3BJ IOp(8/11=1)
 ----------------------------------------------------------------------
 1/38=1,172=1/1;
 2/12=2,15=1,17=6,18=5,40=1/2;
 3/5=7,11=9,16=1,17=8,25=1,30=1,74=-40,124=41/1,2,3,8;
 4//1;
 5/5=2,38=5/2;
 8/6=1,10=1,11=1,108=10/1;
 9/41=10,42=1,48=1,70=2/14;
 6/7=2,8=2,9=2,10=2/1;
 99/5=1,9=1/99;
 Leave Link    1 at Fri May 23 11:04:08 2025, MaxMem= 17179869184 cpu:               1.3 elap:               0.0
 (Enter /opt/bwhpc/common/chem/gaussian/g16.C.01/x86_64-Intel-avx2-source/g16/l101.exe)
 ----------------------------------------------------------------------
 DimerA BaTBAPy_2metal - vertical excitation energies to get MLCT in mu
 ltiwfn
 ----------------------------------------------------------------------
 Symbolic Z-matrix:
 Charge =  0 Multiplicity = 1
 Ba                    22.4564   10.74378   5.21128 
 Ba                    26.26106   32.30378   6.86305 
 C                     22.4753   18.82619   4.36849 
 C                     21.98112   24.29381   8.39327 
 C                     26.24216   18.82619   7.70583 
 C                     26.73634   24.29381   3.68106 
 H                     21.8915   18.10191   4.40773 
 H                     21.39732   25.01809   8.43251 
 H                     26.82596   18.10191   7.66659 
 H                     27.32014   25.01809   3.64182 
 C                     23.38357   16.30798   3.20614 
 C                     22.88939   26.81202   7.23091 
 C                     25.3339   16.30798   8.86819 
 C                     25.82807   26.81202   4.84341 
 H                     22.67906   16.66051   2.71446 
 H                     22.18488   26.45949   6.73924 
 H                     26.0384   16.66051   9.35986 
 H                     26.53258   26.45949   5.33509 
 O                     15.8096   19.65841   6.56924 
 O                     15.31542   23.46159   10.59401 
 O                     27.86542   34.24159   10.59401 
 O                     20.35786   8.87841   5.50509 
 O                     32.90786   19.65841   5.50509 
 O                     28.3596   30.43841   6.56924 
 O                     20.85204   12.68159   1.48031 
 O                     33.40204   23.46159   1.48031 
 C                     17.74001   20.25131   5.34088 
 C                     17.24583   22.86869   9.36565 
 C                     29.79583   33.64869   9.36565 
 C                     18.42745   9.47131   6.73345 
 C                     30.97745   20.25131   6.73345 
 C                     30.29001   31.03131   5.34088 
 C                     18.92163   12.08869   2.70867 
 C                     31.47163   22.86869   2.70867 
 C                     16.26917   20.34833   5.60651 
 C                     15.77499   22.77167   9.63129 
 C                     28.32499   33.55167   9.63129 
 C                     19.89829   9.56833   6.46781 
 C                     32.44829   20.34833   6.46781 
 C                     28.81917   31.12833   5.60651 
 C                     20.39247   11.99167   2.44304 
 C                     32.94247   22.77167   2.44304 
 C                     18.56083   19.38244   6.03555 
 C                     18.06665   23.73756   10.06033 
 C                     30.15663   19.38244   6.03877 
 C                     30.65081   23.73756   2.014 
 H                     18.18459   18.81664   6.67186 
 H                     17.69041   24.30336   10.69664 
 H                     30.53287   18.81664   5.40246 
 H                     31.02705   24.30336   1.37769 
 C                     23.56006   14.96048   3.1997 
 C                     23.06588   28.15952   7.22447 
 C                     25.1574   14.96048   8.87463 
 C                     25.65159   28.15952   4.84985 
 H                     23.01494   14.41284   2.68204 
 H                     22.52076   28.70716   6.70681 
 H                     25.70252   14.41284   9.39229 
 H                     26.1967   28.70716   5.36751 
 C                     19.68049   21.05549   4.17369 
 C                     19.18631   22.06451   8.19847 
 C                     29.03697   21.05549   7.90063 
 C                     29.53116   22.06451   3.87586 
 H                     20.03411   21.60711   3.5131 
 H                     19.53993   21.51289   7.53787 
 H                     28.68335   21.60711   8.56123 
 H                     29.17753   21.51289   4.53645 
 C                     22.80144   21.18917   4.49245 
 C                     22.30726   21.93083   8.51723 
 C                     25.91602   21.18917   7.58187 
 C                     26.4102   21.93083   3.5571 
 C                     24.53902   23.42925   4.16001 
 C                     24.04484   19.69075   8.18478 
 C                     24.17845   23.42925   7.91432 
 C                     24.67263   19.69075   3.88954 
 C                     21.98183   20.10254   4.62608 
 C                     21.48765   23.01746   8.65085 
 C                     26.73563   20.10254   7.44825 
 C                     27.22981   23.01746   3.42347 
 O                     15.64255   21.22798   5.02694 
 O                     15.14837   21.89202   9.05172 
 O                     27.69837   32.67202   9.05172 
 O                     20.52491   10.44798   7.04738 
 O                     33.07491   21.22798   7.04738 
 O                     28.19255   32.00798   5.02694 
 O                     21.01909   11.11202   3.02261 
 O                     33.56909   21.89202   3.02261 
 C                     25.0363   22.13781   3.95313 
 C                     24.54212   20.98219   7.97791 
 C                     23.68116   22.13781   8.12119 
 C                     24.17534   20.98219   4.09642 
 C                     24.57823   14.41286   3.98372 
 C                     24.08405   7.14714   8.0085 
 C                     24.57823   35.97286   3.98372 
 C                     24.08405   28.70714   8.0085 
 C                     24.63341   7.14714   4.06583 
 C                     24.13923   14.41286   8.0906 
 C                     24.63341   28.70714   4.06583 
 C                     24.13923   35.97286   8.0906 
 C                     23.79847   18.59981   4.05858 
 C                     23.30429   24.52019   8.08336 
 C                     24.91899   18.59981   8.01574 
 C                     25.41317   24.52019   3.99097 
 C                     23.20129   23.59311   4.6293 
 C                     22.70711   19.52689   8.65407 
 C                     25.51617   23.59311   7.44503 
 C                     26.01035   19.52689   3.42025 
 H                     22.88061   24.44634   4.81867 
 H                     22.38643   18.67366   8.84344 
 H                     25.83685   24.44634   7.25565 
 H                     26.33103   18.67366   3.23088 
 C                     25.4581   15.27957   4.68806 
 C                     24.96392   27.84043   8.71283 
 C                     23.25936   15.27957   7.38627 
 C                     23.75354   27.84043   3.36149 
 H                     26.16856   14.93282   5.17718 
 H                     25.67438   28.18718   9.20195 
 H                     22.5489   14.93282   6.89714 
 H                     23.04308   28.18718   2.87237 
 C                     18.3539   21.0943   4.42967 
 C                     17.85972   22.0257   8.45444 
 C                     30.36357   21.0943   7.64466 
 C                     30.85774   22.0257   3.61988 
 H                     17.83105   21.71368   3.97327 
 H                     17.33687   21.40632   7.99805 
 H                     30.88641   21.71368   8.10105 
 H                     31.38059   21.40632   4.07628 
 C                     24.7499   12.95972   4.0779 
 C                     24.25572   8.60028   8.10268 
 C                     24.7499   34.51971   4.0779 
 C                     24.25572   30.16028   8.10268 
 C                     24.46174   8.60028   3.97165 
 C                     23.96756   12.95972   7.99642 
 C                     24.46174   30.16028   3.97165 
 C                     23.96756   34.51971   7.99642 
 C                     20.53859   20.19741   4.89171 
 C                     20.04442   22.92259   8.91649 
 C                     28.17887   20.19741   7.18261 
 C                     28.67305   22.92259   3.15784 
 C                     25.24355   16.63354   4.63654 
 C                     24.74937   26.48646   8.66131 
 C                     23.47392   16.63354   7.43778 
 C                     23.9681   26.48646   3.41301 
 H                     25.81348   17.20242   5.10267 
 H                     25.3193   25.91758   9.12745 
 H                     22.90398   17.20242   6.97165 
 H                     23.39816   25.91758   2.94688 
 C                     22.39722   22.5302   4.79995 
 C                     21.90304   20.5898   8.82472 
 C                     26.32024   22.5302   7.27438 
 C                     26.81442   20.5898   3.2496 
 H                     21.54115   22.66978   5.13366 
 H                     21.04697   20.45022   9.15844 
 H                     27.17631   22.66978   6.94066 
 H                     27.67049   20.45022   2.91589 
 O                     24.053    12.20727   3.29388 
 O                     23.55882   9.35273   7.31865 
 O                     24.053    33.76727   3.29388 
 O                     23.55882   30.91273   7.31865 
 O                     25.15864   9.35273   4.75567 
 O                     24.66446   12.20727   8.78045 
 O                     25.15864   30.91273   4.75567 
 O                     24.66446   33.76727   8.78045 
 O                     25.60052   12.48755   4.81605 
 O                     25.10634   9.07245   8.84082 
 O                     25.60052   34.04755   4.81605 
 O                     25.10634   30.63245   8.84082 
 O                     23.61113   9.07245   3.2335 
 O                     23.11695   12.48755   7.25828 
 O                     23.61113   30.63245   3.2335 
 O                     23.11695   34.04755   7.25828 
 C                     19.91851   19.32638   5.81258 
 C                     19.42433   23.79362   9.83735 
 C                     28.79896   19.32638   6.26174 
 C                     29.29314   23.79362   2.23697 
 H                     20.4331   18.70791   6.27688 
 H                     19.93892   24.41209   10.30165 
 H                     28.28436   18.70791   5.79745 
 H                     28.77854   24.41209   1.77267 
 C                     24.18962   17.17254   3.8984 
 C                     23.69544   25.94746   7.92317 
 C                     24.52784   17.17254   8.17593 
 C                     25.02202   25.94746   4.15115 
 H                     18.12447   8.42434   6.7461 
 H                     18.19714   9.9297    7.69518 
 H                     17.87372   9.99579   5.95473 
 H                     24.55027   6.77723   7.09531 
 H                     24.56018   6.66626   8.86299 
 H                     23.02168   6.90339   8.00112 
 H                     23.68132   6.6465    3.8898 
 H                     25.36365   6.81842   3.32637 
 H                     24.99934   6.88169   5.05766 
 H                     18.58288   13.10347   2.49989 
 H                     18.38815   11.37843   2.07698 
 H                     18.74252   11.8554   3.75824 
 H                     14.38897   23.2423   10.7173 
 H                     15.59704   18.77729   6.25293 
 H                     33.16507   23.05026   0.6459 
 H                     32.47246   18.80283   5.50207 
 H                     24.19761   36.23194   2.99574 
 H                     23.86282   36.31004   4.73379 
 H                     25.53364   36.46772   4.15808 
 H                     23.16016   36.45139   8.11336 
 H                     24.7056   36.32677   7.22917 
 H                     24.67473   36.21114   9.0096 
 H                     29.94946   34.1164   8.39316 
 H                     30.23652   32.65179   9.37501 
 H                     30.26817   34.25106   10.14164 
 H                     30.54838   30.00704   5.07214 
 H                     30.84802   31.3156   6.23301 
 H                     30.55447   31.70971   4.52975 
 H                     23.51078   30.07303   2.45982 
 H                     24.63709   33.22575   2.75797 
 H                     26.91923   34.09462   10.66278 
 H                     20.58783   12.28781   0.64561 
 H                     25.71096   9.61151   8.32562 
 H                     24.17046   11.40997   8.98506 
 H                     23.52827   33.47716   6.60477 
 H                     25.60624   11.53086   4.73668 
 
 ITRead=  0  0  0  0  0  0  0  0  0  0  0  0  0  0  0  0  0  0  0  0
 ITRead=  0  0  0  0  0  0  0  0  0  0  0  0  0  0  0  0  0  0  0  0
 ITRead=  0  0  0  0  0  0  0  0  0  0  0  0  0  0  0  0  0  0  0  0
 ITRead=  0  0  0  0  0  0  0  0  0  0  0  0  0  0  0  0  0  0  0  0
 ITRead=  0  0  0  0  0  0  0  0  0  0  0  0  0  0  0  0  0  0  0  0
 ITRead=  0  0  0  0  0  0  0  0  0  0  0  0  0  0  0  0  0  0  0  0
 ITRead=  0  0  0  0  0  0  0  0  0  0  0  0  0  0  0  0  0  0  0  0
 ITRead=  0  0  0  0  0  0  0  0  0  0  0  0  0  0  0  0  0  0  0  0
 ITRead=  0  0  0  0  0  0  0  0  0  0  0  0  0  0  0  0  0  0  0  0
 ITRead=  0  0  0  0  0  0  0  0  0  0  0  0  0  0  0  0  0  0  0  0
 ITRead=  0  0  0  0  0  0  0  0  0  0  0  0  0  0  0  0  0  0
 MicOpt= -1 -1 -1 -1 -1 -1 -1 -1 -1 -1 -1 -1 -1 -1 -1 -1 -1 -1 -1 -1
 MicOpt= -1 -1 -1 -1 -1 -1 -1 -1 -1 -1 -1 -1 -1 -1 -1 -1 -1 -1 -1 -1
 MicOpt= -1 -1 -1 -1 -1 -1 -1 -1 -1 -1 -1 -1 -1 -1 -1 -1 -1 -1 -1 -1
 MicOpt= -1 -1 -1 -1 -1 -1 -1 -1 -1 -1 -1 -1 -1 -1 -1 -1 -1 -1 -1 -1
 MicOpt= -1 -1 -1 -1 -1 -1 -1 -1 -1 -1 -1 -1 -1 -1 -1 -1 -1 -1 -1 -1
 MicOpt= -1 -1 -1 -1 -1 -1 -1 -1 -1 -1 -1 -1 -1 -1 -1 -1 -1 -1 -1 -1
 MicOpt= -1 -1 -1 -1 -1 -1 -1 -1 -1 -1 -1 -1 -1 -1 -1 -1 -1 -1 -1 -1
 MicOpt= -1 -1 -1 -1 -1 -1 -1 -1 -1 -1 -1 -1 -1 -1 -1 -1 -1 -1 -1 -1
 MicOpt= -1 -1 -1 -1 -1 -1 -1 -1 -1 -1 -1 -1 -1 -1 -1 -1 -1 -1 -1 -1
 MicOpt= -1 -1 -1 -1 -1 -1 -1 -1 -1 -1 -1 -1 -1 -1 -1 -1 -1 -1 -1 -1
 MicOpt= -1 -1 -1 -1 -1 -1 -1 -1 -1 -1 -1 -1 -1 -1 -1 -1 -1 -1
 NAtoms=    218 NQM=      218 NQMF=       0 NMMI=      0 NMMIF=      0
                NMic=       0 NMicF=      0.
                    Isotopes and Nuclear Properties:
 (Nuclear quadrupole moments (NQMom) in fm**2, nuclear magnetic moments (NMagM)
  in nuclear magnetons)

  Atom         1           2           3           4           5           6           7           8           9          10
 IAtWgt=         138         138          12          12          12          12           1           1           1           1
 AtmWgt= 137.9050000 137.9050000  12.0000000  12.0000000  12.0000000  12.0000000   1.0078250   1.0078250   1.0078250   1.0078250
 NucSpn=           0           0           0           0           0           0           1           1           1           1
 AtZEff=  -0.0000000  -0.0000000  -0.0000000  -0.0000000  -0.0000000  -0.0000000  -0.0000000  -0.0000000  -0.0000000  -0.0000000
 NQMom=    0.0000000   0.0000000   0.0000000   0.0000000   0.0000000   0.0000000   0.0000000   0.0000000   0.0000000   0.0000000
 NMagM=    0.0000000   0.0000000   0.0000000   0.0000000   0.0000000   0.0000000   2.7928460   2.7928460   2.7928460   2.7928460
 AtZNuc=  56.0000000  56.0000000   6.0000000   6.0000000   6.0000000   6.0000000   1.0000000   1.0000000   1.0000000   1.0000000

  Atom        11          12          13          14          15          16          17          18          19          20
 IAtWgt=          12          12          12          12           1           1           1           1          16          16
 AtmWgt=  12.0000000  12.0000000  12.0000000  12.0000000   1.0078250   1.0078250   1.0078250   1.0078250  15.9949146  15.9949146
 NucSpn=           0           0           0           0           1           1           1           1           0           0
 AtZEff=  -0.0000000  -0.0000000  -0.0000000  -0.0000000  -0.0000000  -0.0000000  -0.0000000  -0.0000000  -0.0000000  -0.0000000
 NQMom=    0.0000000   0.0000000   0.0000000   0.0000000   0.0000000   0.0000000   0.0000000   0.0000000   0.0000000   0.0000000
 NMagM=    0.0000000   0.0000000   0.0000000   0.0000000   2.7928460   2.7928460   2.7928460   2.7928460   0.0000000   0.0000000
 AtZNuc=   6.0000000   6.0000000   6.0000000   6.0000000   1.0000000   1.0000000   1.0000000   1.0000000   8.0000000   8.0000000

  Atom        21          22          23          24          25          26          27          28          29          30
 IAtWgt=          16          16          16          16          16          16          12          12          12          12
 AtmWgt=  15.9949146  15.9949146  15.9949146  15.9949146  15.9949146  15.9949146  12.0000000  12.0000000  12.0000000  12.0000000
 NucSpn=           0           0           0           0           0           0           0           0           0           0
 AtZEff=  -0.0000000  -0.0000000  -0.0000000  -0.0000000  -0.0000000  -0.0000000  -0.0000000  -0.0000000  -0.0000000  -0.0000000
 NQMom=    0.0000000   0.0000000   0.0000000   0.0000000   0.0000000   0.0000000   0.0000000   0.0000000   0.0000000   0.0000000
 NMagM=    0.0000000   0.0000000   0.0000000   0.0000000   0.0000000   0.0000000   0.0000000   0.0000000   0.0000000   0.0000000
 AtZNuc=   8.0000000   8.0000000   8.0000000   8.0000000   8.0000000   8.0000000   6.0000000   6.0000000   6.0000000   6.0000000

  Atom        31          32          33          34          35          36          37          38          39          40
 IAtWgt=          12          12          12          12          12          12          12          12          12          12
 AtmWgt=  12.0000000  12.0000000  12.0000000  12.0000000  12.0000000  12.0000000  12.0000000  12.0000000  12.0000000  12.0000000
 NucSpn=           0           0           0           0           0           0           0           0           0           0
 AtZEff=  -0.0000000  -0.0000000  -0.0000000  -0.0000000  -0.0000000  -0.0000000  -0.0000000  -0.0000000  -0.0000000  -0.0000000
 NQMom=    0.0000000   0.0000000   0.0000000   0.0000000   0.0000000   0.0000000   0.0000000   0.0000000   0.0000000   0.0000000
 NMagM=    0.0000000   0.0000000   0.0000000   0.0000000   0.0000000   0.0000000   0.0000000   0.0000000   0.0000000   0.0000000
 AtZNuc=   6.0000000   6.0000000   6.0000000   6.0000000   6.0000000   6.0000000   6.0000000   6.0000000   6.0000000   6.0000000

  Atom        41          42          43          44          45          46          47          48          49          50
 IAtWgt=          12          12          12          12          12          12           1           1           1           1
 AtmWgt=  12.0000000  12.0000000  12.0000000  12.0000000  12.0000000  12.0000000   1.0078250   1.0078250   1.0078250   1.0078250
 NucSpn=           0           0           0           0           0           0           1           1           1           1
 AtZEff=  -0.0000000  -0.0000000  -0.0000000  -0.0000000  -0.0000000  -0.0000000  -0.0000000  -0.0000000  -0.0000000  -0.0000000
 NQMom=    0.0000000   0.0000000   0.0000000   0.0000000   0.0000000   0.0000000   0.0000000   0.0000000   0.0000000   0.0000000
 NMagM=    0.0000000   0.0000000   0.0000000   0.0000000   0.0000000   0.0000000   2.7928460   2.7928460   2.7928460   2.7928460
 AtZNuc=   6.0000000   6.0000000   6.0000000   6.0000000   6.0000000   6.0000000   1.0000000   1.0000000   1.0000000   1.0000000

  Atom        51          52          53          54          55          56          57          58          59          60
 IAtWgt=          12          12          12          12           1           1           1           1          12          12
 AtmWgt=  12.0000000  12.0000000  12.0000000  12.0000000   1.0078250   1.0078250   1.0078250   1.0078250  12.0000000  12.0000000
 NucSpn=           0           0           0           0           1           1           1           1           0           0
 AtZEff=  -0.0000000  -0.0000000  -0.0000000  -0.0000000  -0.0000000  -0.0000000  -0.0000000  -0.0000000  -0.0000000  -0.0000000
 NQMom=    0.0000000   0.0000000   0.0000000   0.0000000   0.0000000   0.0000000   0.0000000   0.0000000   0.0000000   0.0000000
 NMagM=    0.0000000   0.0000000   0.0000000   0.0000000   2.7928460   2.7928460   2.7928460   2.7928460   0.0000000   0.0000000
 AtZNuc=   6.0000000   6.0000000   6.0000000   6.0000000   1.0000000   1.0000000   1.0000000   1.0000000   6.0000000   6.0000000

  Atom        61          62          63          64          65          66          67          68          69          70
 IAtWgt=          12          12           1           1           1           1          12          12          12          12
 AtmWgt=  12.0000000  12.0000000   1.0078250   1.0078250   1.0078250   1.0078250  12.0000000  12.0000000  12.0000000  12.0000000
 NucSpn=           0           0           1           1           1           1           0           0           0           0
 AtZEff=  -0.0000000  -0.0000000  -0.0000000  -0.0000000  -0.0000000  -0.0000000  -0.0000000  -0.0000000  -0.0000000  -0.0000000
 NQMom=    0.0000000   0.0000000   0.0000000   0.0000000   0.0000000   0.0000000   0.0000000   0.0000000   0.0000000   0.0000000
 NMagM=    0.0000000   0.0000000   2.7928460   2.7928460   2.7928460   2.7928460   0.0000000   0.0000000   0.0000000   0.0000000
 AtZNuc=   6.0000000   6.0000000   1.0000000   1.0000000   1.0000000   1.0000000   6.0000000   6.0000000   6.0000000   6.0000000

  Atom        71          72          73          74          75          76          77          78          79          80
 IAtWgt=          12          12          12          12          12          12          12          12          16          16
 AtmWgt=  12.0000000  12.0000000  12.0000000  12.0000000  12.0000000  12.0000000  12.0000000  12.0000000  15.9949146  15.9949146
 NucSpn=           0           0           0           0           0           0           0           0           0           0
 AtZEff=  -0.0000000  -0.0000000  -0.0000000  -0.0000000  -0.0000000  -0.0000000  -0.0000000  -0.0000000  -0.0000000  -0.0000000
 NQMom=    0.0000000   0.0000000   0.0000000   0.0000000   0.0000000   0.0000000   0.0000000   0.0000000   0.0000000   0.0000000
 NMagM=    0.0000000   0.0000000   0.0000000   0.0000000   0.0000000   0.0000000   0.0000000   0.0000000   0.0000000   0.0000000
 AtZNuc=   6.0000000   6.0000000   6.0000000   6.0000000   6.0000000   6.0000000   6.0000000   6.0000000   8.0000000   8.0000000

  Atom        81          82          83          84          85          86          87          88          89          90
 IAtWgt=          16          16          16          16          16          16          12          12          12          12
 AtmWgt=  15.9949146  15.9949146  15.9949146  15.9949146  15.9949146  15.9949146  12.0000000  12.0000000  12.0000000  12.0000000
 NucSpn=           0           0           0           0           0           0           0           0           0           0
 AtZEff=  -0.0000000  -0.0000000  -0.0000000  -0.0000000  -0.0000000  -0.0000000  -0.0000000  -0.0000000  -0.0000000  -0.0000000
 NQMom=    0.0000000   0.0000000   0.0000000   0.0000000   0.0000000   0.0000000   0.0000000   0.0000000   0.0000000   0.0000000
 NMagM=    0.0000000   0.0000000   0.0000000   0.0000000   0.0000000   0.0000000   0.0000000   0.0000000   0.0000000   0.0000000
 AtZNuc=   8.0000000   8.0000000   8.0000000   8.0000000   8.0000000   8.0000000   6.0000000   6.0000000   6.0000000   6.0000000

  Atom        91          92          93          94          95          96          97          98          99         100
 IAtWgt=          12          12          12          12          12          12          12          12          12          12
 AtmWgt=  12.0000000  12.0000000  12.0000000  12.0000000  12.0000000  12.0000000  12.0000000  12.0000000  12.0000000  12.0000000
 NucSpn=           0           0           0           0           0           0           0           0           0           0
 AtZEff=  -0.0000000  -0.0000000  -0.0000000  -0.0000000  -0.0000000  -0.0000000  -0.0000000  -0.0000000  -0.0000000  -0.0000000
 NQMom=    0.0000000   0.0000000   0.0000000   0.0000000   0.0000000   0.0000000   0.0000000   0.0000000   0.0000000   0.0000000
 NMagM=    0.0000000   0.0000000   0.0000000   0.0000000   0.0000000   0.0000000   0.0000000   0.0000000   0.0000000   0.0000000
 AtZNuc=   6.0000000   6.0000000   6.0000000   6.0000000   6.0000000   6.0000000   6.0000000   6.0000000   6.0000000   6.0000000

  Atom       101         102         103         104         105         106         107         108         109         110
 IAtWgt=          12          12          12          12          12          12           1           1           1           1
 AtmWgt=  12.0000000  12.0000000  12.0000000  12.0000000  12.0000000  12.0000000   1.0078250   1.0078250   1.0078250   1.0078250
 NucSpn=           0           0           0           0           0           0           1           1           1           1
 AtZEff=  -0.0000000  -0.0000000  -0.0000000  -0.0000000  -0.0000000  -0.0000000  -0.0000000  -0.0000000  -0.0000000  -0.0000000
 NQMom=    0.0000000   0.0000000   0.0000000   0.0000000   0.0000000   0.0000000   0.0000000   0.0000000   0.0000000   0.0000000
 NMagM=    0.0000000   0.0000000   0.0000000   0.0000000   0.0000000   0.0000000   2.7928460   2.7928460   2.7928460   2.7928460
 AtZNuc=   6.0000000   6.0000000   6.0000000   6.0000000   6.0000000   6.0000000   1.0000000   1.0000000   1.0000000   1.0000000

  Atom       111         112         113         114         115         116         117         118         119         120
 IAtWgt=          12          12          12          12           1           1           1           1          12          12
 AtmWgt=  12.0000000  12.0000000  12.0000000  12.0000000   1.0078250   1.0078250   1.0078250   1.0078250  12.0000000  12.0000000
 NucSpn=           0           0           0           0           1           1           1           1           0           0
 AtZEff=  -0.0000000  -0.0000000  -0.0000000  -0.0000000  -0.0000000  -0.0000000  -0.0000000  -0.0000000  -0.0000000  -0.0000000
 NQMom=    0.0000000   0.0000000   0.0000000   0.0000000   0.0000000   0.0000000   0.0000000   0.0000000   0.0000000   0.0000000
 NMagM=    0.0000000   0.0000000   0.0000000   0.0000000   2.7928460   2.7928460   2.7928460   2.7928460   0.0000000   0.0000000
 AtZNuc=   6.0000000   6.0000000   6.0000000   6.0000000   1.0000000   1.0000000   1.0000000   1.0000000   6.0000000   6.0000000

  Atom       121         122         123         124         125         126         127         128         129         130
 IAtWgt=          12          12           1           1           1           1          12          12          12          12
 AtmWgt=  12.0000000  12.0000000   1.0078250   1.0078250   1.0078250   1.0078250  12.0000000  12.0000000  12.0000000  12.0000000
 NucSpn=           0           0           1           1           1           1           0           0           0           0
 AtZEff=  -0.0000000  -0.0000000  -0.0000000  -0.0000000  -0.0000000  -0.0000000  -0.0000000  -0.0000000  -0.0000000  -0.0000000
 NQMom=    0.0000000   0.0000000   0.0000000   0.0000000   0.0000000   0.0000000   0.0000000   0.0000000   0.0000000   0.0000000
 NMagM=    0.0000000   0.0000000   2.7928460   2.7928460   2.7928460   2.7928460   0.0000000   0.0000000   0.0000000   0.0000000
 AtZNuc=   6.0000000   6.0000000   1.0000000   1.0000000   1.0000000   1.0000000   6.0000000   6.0000000   6.0000000   6.0000000

  Atom       131         132         133         134         135         136         137         138         139         140
 IAtWgt=          12          12          12          12          12          12          12          12          12          12
 AtmWgt=  12.0000000  12.0000000  12.0000000  12.0000000  12.0000000  12.0000000  12.0000000  12.0000000  12.0000000  12.0000000
 NucSpn=           0           0           0           0           0           0           0           0           0           0
 AtZEff=  -0.0000000  -0.0000000  -0.0000000  -0.0000000  -0.0000000  -0.0000000  -0.0000000  -0.0000000  -0.0000000  -0.0000000
 NQMom=    0.0000000   0.0000000   0.0000000   0.0000000   0.0000000   0.0000000   0.0000000   0.0000000   0.0000000   0.0000000
 NMagM=    0.0000000   0.0000000   0.0000000   0.0000000   0.0000000   0.0000000   0.0000000   0.0000000   0.0000000   0.0000000
 AtZNuc=   6.0000000   6.0000000   6.0000000   6.0000000   6.0000000   6.0000000   6.0000000   6.0000000   6.0000000   6.0000000

  Atom       141         142         143         144         145         146         147         148         149         150
 IAtWgt=          12          12           1           1           1           1          12          12          12          12
 AtmWgt=  12.0000000  12.0000000   1.0078250   1.0078250   1.0078250   1.0078250  12.0000000  12.0000000  12.0000000  12.0000000
 NucSpn=           0           0           1           1           1           1           0           0           0           0
 AtZEff=  -0.0000000  -0.0000000  -0.0000000  -0.0000000  -0.0000000  -0.0000000  -0.0000000  -0.0000000  -0.0000000  -0.0000000
 NQMom=    0.0000000   0.0000000   0.0000000   0.0000000   0.0000000   0.0000000   0.0000000   0.0000000   0.0000000   0.0000000
 NMagM=    0.0000000   0.0000000   2.7928460   2.7928460   2.7928460   2.7928460   0.0000000   0.0000000   0.0000000   0.0000000
 AtZNuc=   6.0000000   6.0000000   1.0000000   1.0000000   1.0000000   1.0000000   6.0000000   6.0000000   6.0000000   6.0000000

  Atom       151         152         153         154         155         156         157         158         159         160
 IAtWgt=           1           1           1           1          16          16          16          16          16          16
 AtmWgt=   1.0078250   1.0078250   1.0078250   1.0078250  15.9949146  15.9949146  15.9949146  15.9949146  15.9949146  15.9949146
 NucSpn=           1           1           1           1           0           0           0           0           0           0
 AtZEff=  -0.0000000  -0.0000000  -0.0000000  -0.0000000  -0.0000000  -0.0000000  -0.0000000  -0.0000000  -0.0000000  -0.0000000
 NQMom=    0.0000000   0.0000000   0.0000000   0.0000000   0.0000000   0.0000000   0.0000000   0.0000000   0.0000000   0.0000000
 NMagM=    2.7928460   2.7928460   2.7928460   2.7928460   0.0000000   0.0000000   0.0000000   0.0000000   0.0000000   0.0000000
 AtZNuc=   1.0000000   1.0000000   1.0000000   1.0000000   8.0000000   8.0000000   8.0000000   8.0000000   8.0000000   8.0000000

  Atom       161         162         163         164         165         166         167         168         169         170
 IAtWgt=          16          16          16          16          16          16          16          16          16          16
 AtmWgt=  15.9949146  15.9949146  15.9949146  15.9949146  15.9949146  15.9949146  15.9949146  15.9949146  15.9949146  15.9949146
 NucSpn=           0           0           0           0           0           0           0           0           0           0
 AtZEff=  -0.0000000  -0.0000000  -0.0000000  -0.0000000  -0.0000000  -0.0000000  -0.0000000  -0.0000000  -0.0000000  -0.0000000
 NQMom=    0.0000000   0.0000000   0.0000000   0.0000000   0.0000000   0.0000000   0.0000000   0.0000000   0.0000000   0.0000000
 NMagM=    0.0000000   0.0000000   0.0000000   0.0000000   0.0000000   0.0000000   0.0000000   0.0000000   0.0000000   0.0000000
 AtZNuc=   8.0000000   8.0000000   8.0000000   8.0000000   8.0000000   8.0000000   8.0000000   8.0000000   8.0000000   8.0000000

  Atom       171         172         173         174         175         176         177         178         179         180
 IAtWgt=          12          12          12          12           1           1           1           1          12          12
 AtmWgt=  12.0000000  12.0000000  12.0000000  12.0000000   1.0078250   1.0078250   1.0078250   1.0078250  12.0000000  12.0000000
 NucSpn=           0           0           0           0           1           1           1           1           0           0
 AtZEff=  -0.0000000  -0.0000000  -0.0000000  -0.0000000  -0.0000000  -0.0000000  -0.0000000  -0.0000000  -0.0000000  -0.0000000
 NQMom=    0.0000000   0.0000000   0.0000000   0.0000000   0.0000000   0.0000000   0.0000000   0.0000000   0.0000000   0.0000000
 NMagM=    0.0000000   0.0000000   0.0000000   0.0000000   2.7928460   2.7928460   2.7928460   2.7928460   0.0000000   0.0000000
 AtZNuc=   6.0000000   6.0000000   6.0000000   6.0000000   1.0000000   1.0000000   1.0000000   1.0000000   6.0000000   6.0000000

  Atom       181         182         183         184         185         186         187         188         189         190
 IAtWgt=          12          12           1           1           1           1           1           1           1           1
 AtmWgt=  12.0000000  12.0000000   1.0078250   1.0078250   1.0078250   1.0078250   1.0078250   1.0078250   1.0078250   1.0078250
 NucSpn=           0           0           1           1           1           1           1           1           1           1
 AtZEff=  -0.0000000  -0.0000000  -0.0000000  -0.0000000  -0.0000000  -0.0000000  -0.0000000  -0.0000000  -0.0000000  -0.0000000
 NQMom=    0.0000000   0.0000000   0.0000000   0.0000000   0.0000000   0.0000000   0.0000000   0.0000000   0.0000000   0.0000000
 NMagM=    0.0000000   0.0000000   2.7928460   2.7928460   2.7928460   2.7928460   2.7928460   2.7928460   2.7928460   2.7928460
 AtZNuc=   6.0000000   6.0000000   1.0000000   1.0000000   1.0000000   1.0000000   1.0000000   1.0000000   1.0000000   1.0000000

  Atom       191         192         193         194         195         196         197         198         199         200
 IAtWgt=           1           1           1           1           1           1           1           1           1           1
 AtmWgt=   1.0078250   1.0078250   1.0078250   1.0078250   1.0078250   1.0078250   1.0078250   1.0078250   1.0078250   1.0078250
 NucSpn=           1           1           1           1           1           1           1           1           1           1
 AtZEff=  -0.0000000  -0.0000000  -0.0000000  -0.0000000  -0.0000000  -0.0000000  -0.0000000  -0.0000000  -0.0000000  -0.0000000
 NQMom=    0.0000000   0.0000000   0.0000000   0.0000000   0.0000000   0.0000000   0.0000000   0.0000000   0.0000000   0.0000000
 NMagM=    2.7928460   2.7928460   2.7928460   2.7928460   2.7928460   2.7928460   2.7928460   2.7928460   2.7928460   2.7928460
 AtZNuc=   1.0000000   1.0000000   1.0000000   1.0000000   1.0000000   1.0000000   1.0000000   1.0000000   1.0000000   1.0000000

  Atom       201         202         203         204         205         206         207         208         209         210
 IAtWgt=           1           1           1           1           1           1           1           1           1           1
 AtmWgt=   1.0078250   1.0078250   1.0078250   1.0078250   1.0078250   1.0078250   1.0078250   1.0078250   1.0078250   1.0078250
 NucSpn=           1           1           1           1           1           1           1           1           1           1
 AtZEff=  -0.0000000  -0.0000000  -0.0000000  -0.0000000  -0.0000000  -0.0000000  -0.0000000  -0.0000000  -0.0000000  -0.0000000
 NQMom=    0.0000000   0.0000000   0.0000000   0.0000000   0.0000000   0.0000000   0.0000000   0.0000000   0.0000000   0.0000000
 NMagM=    2.7928460   2.7928460   2.7928460   2.7928460   2.7928460   2.7928460   2.7928460   2.7928460   2.7928460   2.7928460
 AtZNuc=   1.0000000   1.0000000   1.0000000   1.0000000   1.0000000   1.0000000   1.0000000   1.0000000   1.0000000   1.0000000

  Atom       211         212         213         214         215         216         217         218
 IAtWgt=           1           1           1           1           1           1           1           1
 AtmWgt=   1.0078250   1.0078250   1.0078250   1.0078250   1.0078250   1.0078250   1.0078250   1.0078250
 NucSpn=           1           1           1           1           1           1           1           1
 AtZEff=  -0.0000000  -0.0000000  -0.0000000  -0.0000000  -0.0000000  -0.0000000  -0.0000000  -0.0000000
 NQMom=    0.0000000   0.0000000   0.0000000   0.0000000   0.0000000   0.0000000   0.0000000   0.0000000
 NMagM=    2.7928460   2.7928460   2.7928460   2.7928460   2.7928460   2.7928460   2.7928460   2.7928460
 AtZNuc=   1.0000000   1.0000000   1.0000000   1.0000000   1.0000000   1.0000000   1.0000000   1.0000000
 Leave Link  101 at Fri May 23 11:04:08 2025, MaxMem= 17179869184 cpu:               7.8 elap:               0.2
 (Enter /opt/bwhpc/common/chem/gaussian/g16.C.01/x86_64-Intel-avx2-source/g16/l202.exe)
 Symmetry turned off by external request.
 Stoichiometry    C104H80Ba2O32
 Framework group  C1[X(C104H80Ba2O32)]
 Deg. of freedom   648
 Full point group                 C1      NOp   1
                          Input orientation:                          
 ---------------------------------------------------------------------
 Center     Atomic      Atomic             Coordinates (Angstroms)
 Number     Number       Type             X           Y           Z
 ---------------------------------------------------------------------
      1         56           0       22.456404   10.743779    5.211278
      2         56           0       26.261057   32.303780    6.863045
      3          6           0       22.475298   18.826193    4.368490
      4          6           0       21.981117   24.293806    8.393265
      5          6           0       26.242163   18.826193    7.705833
      6          6           0       26.736343   24.293806    3.681059
      7          1           0       21.891497   18.101906    4.407732
      8          1           0       21.397318   25.018093    8.432506
      9          1           0       26.825962   18.101906    7.666592
     10          1           0       27.320143   25.018093    3.641817
     11          6           0       23.383566   16.307983    3.206135
     12          6           0       22.889385   26.812016    7.230910
     13          6           0       25.333895   16.307983    8.868188
     14          6           0       25.828074   26.812016    4.843414
     15          1           0       22.679064   16.660511    2.714461
     16          1           0       22.184883   26.459488    6.739235
     17          1           0       26.038397   16.660511    9.359863
     18          1           0       26.532576   26.459488    5.335088
     19          8           0       15.809599   19.658407    6.569237
     20          8           0       15.315419   23.461592   10.594011
     21          8           0       27.865419   34.241592   10.594011
     22          8           0       20.357861    8.878408    5.505087
     23          8           0       32.907860   19.658407    5.505087
     24          8           0       28.359600   30.438408    6.569237
     25          8           0       20.852041   12.681592    1.480312
     26          8           0       33.402042   23.461592    1.480312
     27          6           0       17.740013   20.251308    5.340876
     28          6           0       17.245832   22.868690    9.365650
     29          6           0       29.795834   33.648689    9.365650
     30          6           0       18.427446    9.471308    6.733448
     31          6           0       30.977448   20.251308    6.733448
     32          6           0       30.290012   31.031307    5.340876
     33          6           0       18.921627   12.088692    2.708673
     34          6           0       31.471626   22.868690    2.708673
     35          6           0       16.269167   20.348328    5.606511
     36          6           0       15.774987   22.771671    9.631285
     37          6           0       28.324987   33.551670    9.631285
     38          6           0       19.898293    9.568328    6.467813
     39          6           0       32.448292   20.348328    6.467813
     40          6           0       28.819168   31.128326    5.606511
     41          6           0       20.392473   11.991672    2.443038
     42          6           0       32.942474   22.771671    2.443038
     43          6           0       18.560827   19.382439    6.035552
     44          6           0       18.066647   23.737560   10.060326
     45          6           0       30.156633   19.382439    6.038771
     46          6           0       30.650812   23.737560    2.013997
     47          1           0       18.184586   18.816641    6.671861
     48          1           0       17.690407   24.303358   10.696635
     49          1           0       30.532873   18.816641    5.402463
     50          1           0       31.027054   24.303358    1.377688
     51          6           0       23.560057   14.960484    3.199696
     52          6           0       23.065878   28.159515    7.224470
     53          6           0       25.157404   14.960484    8.874628
     54          6           0       25.651585   28.159515    4.849853
     55          1           0       23.014942   14.412838    2.682037
     56          1           0       22.520761   28.707161    6.706812
     57          1           0       25.702518   14.412838    9.392286
     58          1           0       26.196697   28.707161    5.367512
     59          6           0       19.680487   21.055494    4.173691
     60          6           0       19.186306   22.064505    8.198465
     61          6           0       29.036974   21.055494    7.900633
     62          6           0       29.531155   22.064505    3.875858
     63          1           0       20.034107   21.607107    3.513097
     64          1           0       19.539927   21.512892    7.537871
     65          1           0       28.683353   21.607107    8.561227
     66          1           0       29.177532   21.512892    4.536452
     67          6           0       22.801437   21.189169    4.492453
     68          6           0       22.307257   21.930832    8.517228
     69          6           0       25.916023   21.189169    7.581870
     70          6           0       26.410204   21.930832    3.557096
     71          6           0       24.539017   23.429253    4.160007
     72          6           0       24.044836   19.690746    8.184781
     73          6           0       24.178446   23.429253    7.914317
     74          6           0       24.672625   19.690746    3.889542
     75          6           0       21.981831   20.102543    4.626076
     76          6           0       21.487650   23.017456    8.650850
     77          6           0       26.735630   20.102543    7.448248
     78          6           0       27.229811   23.017456    3.423473
     79          8           0       15.642549   21.227976    5.026943
     80          8           0       15.148369   21.892023    9.051718
     81          8           0       27.698368   32.672024    9.051718
     82          8           0       20.524912   10.447976    7.047380
     83          8           0       33.074909   21.227976    7.047380
     84          8           0       28.192549   32.007977    5.026943
     85          8           0       21.019091   11.112024    3.022606
     86          8           0       33.569092   21.892023    3.022606
     87          6           0       25.036297   22.137808    3.953134
     88          6           0       24.542116   20.982191    7.977908
     89          6           0       23.681164   22.137808    8.121190
     90          6           0       24.175344   20.982191    4.096415
     91          6           0       24.578232   14.412860    3.983722
     92          6           0       24.084051    7.147140    8.008496
     93          6           0       24.578232   35.972858    3.983722
     94          6           0       24.084051   28.707138    8.008496
     95          6           0       24.633410    7.147140    4.065827
     96          6           0       24.139231   14.412860    8.090602
     97          6           0       24.633410   28.707138    4.065827
     98          6           0       24.139231   35.972858    8.090602
     99          6           0       23.798470   18.599812    4.058582
    100          6           0       23.304289   24.520187    8.083357
    101          6           0       24.918991   18.599812    8.015741
    102          6           0       25.413172   24.520187    3.990967
    103          6           0       23.201294   23.593107    4.629296
    104          6           0       22.707113   19.526892    8.654070
    105          6           0       25.516167   23.593107    7.445028
    106          6           0       26.010345   19.526892    3.420253
    107          1           0       22.880608   24.446344    4.818669
    108          1           0       22.386427   18.673655    8.843444
    109          1           0       25.836853   24.446344    7.255654
    110          1           0       26.331034   18.673655    3.230880
    111          6           0       25.458099   15.279572    4.688058
    112          6           0       24.963919   27.840427    8.712832
    113          6           0       23.259361   15.279572    7.386266
    114          6           0       23.753542   27.840427    3.361491
    115          1           0       26.168562   14.932822    5.177180
    116          1           0       25.674381   28.187178    9.201954
    117          1           0       22.548899   14.932822    6.897143
    118          1           0       23.043079   28.187178    2.872369
    119          6           0       18.353895   21.094303    4.429667
    120          6           0       17.859716   22.025696    8.454441
    121          6           0       30.363565   21.094303    7.644657
    122          6           0       30.857744   22.025696    3.619882
    123          1           0       17.831053   21.713678    3.973274
    124          1           0       17.336872   21.406321    7.998048
    125          1           0       30.886408   21.713678    8.101050
    126          1           0       31.380589   21.406321    4.076275
    127          6           0       24.749897   12.959716    4.077902
    128          6           0       24.255716    8.600284    8.102676
    129          6           0       24.749897   34.519714    4.077902
    130          6           0       24.255716   30.160282    8.102676
    131          6           0       24.461744    8.600284    3.971647
    132          6           0       23.967564   12.959716    7.996422
    133          6           0       24.461744   30.160282    3.971647
    134          6           0       23.967564   34.519714    7.996422
    135          6           0       20.538593   20.197409    4.891711
    136          6           0       20.044415   22.922590    8.916485
    137          6           0       28.178865   20.197409    7.182613
    138          6           0       28.673046   22.922590    3.157838
    139          6           0       25.243546   16.633539    4.636540
    140          6           0       24.749365   26.486460    8.661314
    141          6           0       23.473915   16.633539    7.437783
    142          6           0       23.968096   26.486460    3.413009
    143          1           0       25.813484   17.202421    5.102673
    144          1           0       25.319304   25.917578    9.127448
    145          1           0       22.903976   17.202421    6.971650
    146          1           0       23.398155   25.917578    2.946876
    147          6           0       22.397221   22.530199    4.799946
    148          6           0       21.903042   20.589800    8.824721
    149          6           0       26.320238   22.530199    7.274377
    150          6           0       26.814419   20.589800    3.249603
    151          1           0       21.541147   22.669779    5.133664
    152          1           0       21.046968   20.450220    9.158439
    153          1           0       27.176311   22.669779    6.940659
    154          1           0       27.670492   20.450220    2.915885
    155          8           0       24.053003   12.207272    3.293876
    156          8           0       23.558823    9.352728    7.318650
    157          8           0       24.053003   33.767269    3.293876
    158          8           0       23.558823   30.912727    7.318650
    159          8           0       25.158636    9.352728    4.755673
    160          8           0       24.664457   12.207272    8.780448
    161          8           0       25.158636   30.912727    4.755673
    162          8           0       24.664457   33.767269    8.780448
    163          8           0       25.600515   12.487552    4.816045
    164          8           0       25.106335    9.072448    8.840819
    165          8           0       25.600515   34.047550    4.816045
    166          8           0       25.106335   30.632446    8.840819
    167          8           0       23.611126    9.072448    3.233504
    168          8           0       23.116945   12.487552    7.258278
    169          8           0       23.611126   30.632446    3.233504
    170          8           0       23.116945   34.047550    7.258278
    171          6           0       19.918505   19.326384    5.812579
    172          6           0       19.424326   23.793615    9.837354
    173          6           0       28.798956   19.326384    6.261744
    174          6           0       29.293135   23.793615    2.236969
    175          1           0       20.433100   18.707912    6.276877
    176          1           0       19.938919   24.412086   10.301652
    177          1           0       28.284361   18.707912    5.797446
    178          1           0       28.778542   24.412086    1.772672
    179          6           0       24.189617   17.172541    3.898396
    180          6           0       23.695436   25.947458    7.923171
    181          6           0       24.527843   17.172541    8.175927
    182          6           0       25.022022   25.947458    4.151152
    183          1           0       18.124475    8.424337    6.746099
    184          1           0       18.197140    9.929701    7.695183
    185          1           0       17.873717    9.995786    5.954727
    186          1           0       24.550269    6.777226    7.095311
    187          1           0       24.560178    6.666258    8.862988
    188          1           0       23.021679    6.903391    8.001123
    189          1           0       23.681320    6.646497    3.889803
    190          1           0       25.363652    6.818423    3.326371
    191          1           0       24.999337    6.881688    5.057662
    192          1           0       18.582885   13.103465    2.499894
    193          1           0       18.388148   11.378434    2.076981
    194          1           0       18.742519   11.855395    3.758241
    195          1           0       14.388968   23.242301   10.717296
    196          1           0       15.597042   18.777291    6.252926
    197          1           0       33.165067   23.050260    0.645900
    198          1           0       32.472464   18.802827    5.502073
    199          1           0       24.197606   36.231938    2.995744
    200          1           0       23.862823   36.310040    4.733788
    201          1           0       25.533641   36.467723    4.158084
    202          1           0       23.160157   36.451393    8.113362
    203          1           0       24.705600   36.326772    7.229166
    204          1           0       24.674733   36.211143    9.009600
    205          1           0       29.949462   34.116399    8.393155
    206          1           0       30.236520   32.651790    9.375013
    207          1           0       30.268165   34.251058   10.141637
    208          1           0       30.548376   30.007036    5.072143
    209          1           0       30.848022   31.315600    6.233010
    210          1           0       30.554471   31.709713    4.529749
    211          1           0       23.510784   30.073033    2.459822
    212          1           0       24.637092   33.225751    2.757972
    213          1           0       26.919235   34.094624   10.662776
    214          1           0       20.587827   12.287811    0.645612
    215          1           0       25.710963    9.611512    8.325617
    216          1           0       24.170461   11.409965    8.985062
    217          1           0       23.528274   33.477163    6.604774
    218          1           0       25.606239   11.530857    4.736681
 ---------------------------------------------------------------------
 Rotational constants (GHZ):           0.0135438           0.0036104           0.0031579
 Leave Link  202 at Fri May 23 11:04:08 2025, MaxMem= 17179869184 cpu:               0.3 elap:               0.0
 (Enter /opt/bwhpc/common/chem/gaussian/g16.C.01/x86_64-Intel-avx2-source/g16/l301.exe)
 General basis read from cards:  (5D, 7F)
 Centers:       7      8      9     10     15     16     17     18     47     48
 Centers:      49     50     55     56     57     58     63     64     65     66
 Centers:     107    108    109    110    115    116    117    118    123    124
 Centers:     125    126    143    144    145    146    151    152    153    154
 Centers:     175    176    177    178    183    184    185    186    187    188
 Centers:     189    190    191    192    193    194    195    196    197    198
 Centers:     199    200    201    202    203    204    205    206    207    208
 Centers:     209    210    211    212    213    214    215    216    217    218
 S 3 1.00
     Exponent=  1.3010701000D+01 Coefficients=  1.9682158000D-02
     Exponent=  1.9622572000D+00 Coefficients=  1.3796524000D-01
     Exponent=  4.4453796000D-01 Coefficients=  4.7831935000D-01
 S 1 1.00
     Exponent=  1.2194962000D-01 Coefficients=  1.0000000000D+00
 P 1 1.00
     Exponent=  8.0000000000D-01 Coefficients=  1.0000000000D+00
 ****
 Centers:       3      4      5      6     11     12     13     14     27     28
 Centers:      29     30     31     32     33     34     35     36     37     38
 Centers:      39     40     41     42     43     44     45     46     51     52
 Centers:      53     54     59     60     61     62     67     68     69     70
 Centers:      71     72     73     74     75     76     77     78     87     88
 Centers:      89     90     91     92     93     94     95     96     97     98
 Centers:      99    100    101    102    103    104    105    106    111    112
 Centers:     113    114    119    120    121    122    127    128    129    130
 Centers:     131    132    133    134    135    136    137    138    139    140
 Centers:     141    142    147    148    149    150    171    172    173    174
 Centers:     179    180    181    182
 S 5 1.00
     Exponent=  1.2384016938D+03 Coefficients=  5.4568832082D-03
     Exponent=  1.8629004992D+02 Coefficients=  4.0638409211D-02
     Exponent=  4.2251176346D+01 Coefficients=  1.8025593888D-01
     Exponent=  1.1676557932D+01 Coefficients=  4.6315121755D-01
     Exponent=  3.5930506482D+00 Coefficients=  4.4087173314D-01
 S 1 1.00
     Exponent=  4.0245147363D-01 Coefficients=  1.0000000000D+00
 S 1 1.00
     Exponent=  1.3090182668D-01 Coefficients=  1.0000000000D+00
 P 3 1.00
     Exponent=  9.4680970621D+00 Coefficients=  3.8387871728D-02
     Exponent=  2.0103545142D+00 Coefficients=  2.1117025112D-01
     Exponent=  5.4771004707D-01 Coefficients=  5.1328172114D-01
 P 1 1.00
     Exponent=  1.5268613795D-01 Coefficients=  1.0000000000D+00
 D 1 1.00
     Exponent=  8.0000000000D-01 Coefficients=  1.0000000000D+00
 ****
 Centers:      19     20     21     22     23     24     25     26     79     80
 Centers:      81     82     83     84     85     86    155    156    157    158
 Centers:     159    160    161    162    163    164    165    166    167    168
 Centers:     169    170
 S 5 1.00
     Exponent=  2.2661767785D+03 Coefficients= -5.3431809926D-03
     Exponent=  3.4087010191D+02 Coefficients= -3.9890039230D-02
     Exponent=  7.7363135167D+01 Coefficients= -1.7853911985D-01
     Exponent=  2.1479644940D+01 Coefficients= -4.6427684959D-01
     Exponent=  6.6589433124D+00 Coefficients= -4.4309745172D-01
 S 1 1.00
     Exponent=  8.0975975668D-01 Coefficients=  1.0000000000D+00
 S 1 1.00
     Exponent=  2.5530772234D-01 Coefficients=  1.0000000000D+00
 P 3 1.00
     Exponent=  1.7721504317D+01 Coefficients=  4.3394573193D-02
     Exponent=  3.8635505440D+00 Coefficients=  2.3094120765D-01
     Exponent=  1.0480920883D+00 Coefficients=  5.1375311064D-01
 P 1 1.00
     Exponent=  2.7641544411D-01 Coefficients=  1.0000000000D+00
 D 1 1.00
     Exponent=  1.2000000000D+00 Coefficients=  1.0000000000D+00
 ****
 Centers:       1      2
 S 3 1.00
     Exponent=  2.3961900000D+00 Coefficients= -5.9554766710D+00
     Exponent=  2.2433050000D+00 Coefficients=  6.6805648241D+00
     Exponent=  7.1740200000D-01 Coefficients= -5.7055347037D-01
 S 1 1.00
     Exponent=  2.7420073547D-01 Coefficients=  1.0000000000D+00
 S 1 1.00
     Exponent=  4.0933264188D-02 Coefficients=  1.0000000000D+00
 S 1 1.00
     Exponent=  1.8060156423D-02 Coefficients=  1.0000000000D+00
 P 4 1.00
     Exponent=  2.9267420000D+00 Coefficients=  7.9815276764D-01
     Exponent=  2.5207180000D+00 Coefficients= -1.0707548832D+00
     Exponent=  6.7578180854D-01 Coefficients=  3.4940781448D-01
     Exponent=  3.1985844531D-01 Coefficients=  6.5041110673D-01
 P 1 1.00
     Exponent=  1.3221792446D-01 Coefficients=  1.0000000000D+00
 P 1 1.00
     Exponent=  3.3039565349D-02 Coefficients=  1.0000000000D+00
 D 4 1.00
     Exponent=  9.6631500000D-01 Coefficients= -9.0893800000D-01
     Exponent=  8.9382800000D-01 Coefficients=  9.4724000000D-01
     Exponent=  2.7319500000D-01 Coefficients=  3.2205700000D-01
     Exponent=  1.0389100000D-01 Coefficients=  4.7326000000D-01
 D 1 1.00
     Exponent=  3.5578000000D-02 Coefficients=  3.6597700000D-01
 F 4 1.00
     Exponent=  1.0000000000D+01 Coefficients=  7.3000000000D-02
     Exponent=  3.2000000000D+00 Coefficients=  2.1000000000D-01
     Exponent=  1.0000000000D+00 Coefficients=  3.5000000000D-01
     Exponent=  3.2000000000D-01 Coefficients=  3.6000000000D-01
 ****
 ======================================================================================================
                                       Pseudopotential Parameters
 ======================================================================================================
  Center     Atomic      Valence      Angular      Power
  Number     Number     Electrons     Momentum     of R      Exponent        Coefficient   SO-Coeffient
 ======================================================================================================
    1         56           10
                                      F and up 
                                                     2        3.5894650      -33.47317400    0.00000000
                                      S - F
                                                     2        9.5269860      427.84581600    0.00000000
                                                     2        4.4875100      204.41753000    0.00000000
                                                     2        3.5894650       33.47317400    0.00000000
                                      P - F
                                                     2        8.3159300      293.60586400    0.00000000
                                                     2        4.2922170      294.19331600    0.00000000
                                                     2        3.5894650       33.47317400    0.00000000
                                      D - F
                                                     2        5.9161080      112.55040200    0.00000000
                                                     2        2.8748420      181.78262100    0.00000000
                                                     2        3.5894650       33.47317400    0.00000000
    2         56           10
                                      F and up 
                                                     2        3.5894650      -33.47317400    0.00000000
                                      S - F
                                                     2        9.5269860      427.84581600    0.00000000
                                                     2        4.4875100      204.41753000    0.00000000
                                                     2        3.5894650       33.47317400    0.00000000
                                      P - F
                                                     2        8.3159300      293.60586400    0.00000000
                                                     2        4.2922170      294.19331600    0.00000000
                                                     2        3.5894650       33.47317400    0.00000000
                                      D - F
                                                     2        5.9161080      112.55040200    0.00000000
                                                     2        2.8748420      181.78262100    0.00000000
                                                     2        3.5894650       33.47317400    0.00000000
    3          6
                                   No pseudopotential on this center.
    4          6
                                   No pseudopotential on this center.
    5          6
                                   No pseudopotential on this center.
    6          6
                                   No pseudopotential on this center.
    7          1
                                   No pseudopotential on this center.
    8          1
                                   No pseudopotential on this center.
    9          1
                                   No pseudopotential on this center.
   10          1
                                   No pseudopotential on this center.
   11          6
                                   No pseudopotential on this center.
   12          6
                                   No pseudopotential on this center.
   13          6
                                   No pseudopotential on this center.
   14          6
                                   No pseudopotential on this center.
   15          1
                                   No pseudopotential on this center.
   16          1
                                   No pseudopotential on this center.
   17          1
                                   No pseudopotential on this center.
   18          1
                                   No pseudopotential on this center.
   19          8
                                   No pseudopotential on this center.
   20          8
                                   No pseudopotential on this center.
   21          8
                                   No pseudopotential on this center.
   22          8
                                   No pseudopotential on this center.
   23          8
                                   No pseudopotential on this center.
   24          8
                                   No pseudopotential on this center.
   25          8
                                   No pseudopotential on this center.
   26          8
                                   No pseudopotential on this center.
   27          6
                                   No pseudopotential on this center.
   28          6
                                   No pseudopotential on this center.
   29          6
                                   No pseudopotential on this center.
   30          6
                                   No pseudopotential on this center.
   31          6
                                   No pseudopotential on this center.
   32          6
                                   No pseudopotential on this center.
   33          6
                                   No pseudopotential on this center.
   34          6
                                   No pseudopotential on this center.
   35          6
                                   No pseudopotential on this center.
   36          6
                                   No pseudopotential on this center.
   37          6
                                   No pseudopotential on this center.
   38          6
                                   No pseudopotential on this center.
   39          6
                                   No pseudopotential on this center.
   40          6
                                   No pseudopotential on this center.
   41          6
                                   No pseudopotential on this center.
   42          6
                                   No pseudopotential on this center.
   43          6
                                   No pseudopotential on this center.
   44          6
                                   No pseudopotential on this center.
   45          6
                                   No pseudopotential on this center.
   46          6
                                   No pseudopotential on this center.
   47          1
                                   No pseudopotential on this center.
   48          1
                                   No pseudopotential on this center.
   49          1
                                   No pseudopotential on this center.
   50          1
                                   No pseudopotential on this center.
   51          6
                                   No pseudopotential on this center.
   52          6
                                   No pseudopotential on this center.
   53          6
                                   No pseudopotential on this center.
   54          6
                                   No pseudopotential on this center.
   55          1
                                   No pseudopotential on this center.
   56          1
                                   No pseudopotential on this center.
   57          1
                                   No pseudopotential on this center.
   58          1
                                   No pseudopotential on this center.
   59          6
                                   No pseudopotential on this center.
   60          6
                                   No pseudopotential on this center.
   61          6
                                   No pseudopotential on this center.
   62          6
                                   No pseudopotential on this center.
   63          1
                                   No pseudopotential on this center.
   64          1
                                   No pseudopotential on this center.
   65          1
                                   No pseudopotential on this center.
   66          1
                                   No pseudopotential on this center.
   67          6
                                   No pseudopotential on this center.
   68          6
                                   No pseudopotential on this center.
   69          6
                                   No pseudopotential on this center.
   70          6
                                   No pseudopotential on this center.
   71          6
                                   No pseudopotential on this center.
   72          6
                                   No pseudopotential on this center.
   73          6
                                   No pseudopotential on this center.
   74          6
                                   No pseudopotential on this center.
   75          6
                                   No pseudopotential on this center.
   76          6
                                   No pseudopotential on this center.
   77          6
                                   No pseudopotential on this center.
   78          6
                                   No pseudopotential on this center.
   79          8
                                   No pseudopotential on this center.
   80          8
                                   No pseudopotential on this center.
   81          8
                                   No pseudopotential on this center.
   82          8
                                   No pseudopotential on this center.
   83          8
                                   No pseudopotential on this center.
   84          8
                                   No pseudopotential on this center.
   85          8
                                   No pseudopotential on this center.
   86          8
                                   No pseudopotential on this center.
   87          6
                                   No pseudopotential on this center.
   88          6
                                   No pseudopotential on this center.
   89          6
                                   No pseudopotential on this center.
   90          6
                                   No pseudopotential on this center.
   91          6
                                   No pseudopotential on this center.
   92          6
                                   No pseudopotential on this center.
   93          6
                                   No pseudopotential on this center.
   94          6
                                   No pseudopotential on this center.
   95          6
                                   No pseudopotential on this center.
   96          6
                                   No pseudopotential on this center.
   97          6
                                   No pseudopotential on this center.
   98          6
                                   No pseudopotential on this center.
   99          6
                                   No pseudopotential on this center.
  100          6
                                   No pseudopotential on this center.
  101          6
                                   No pseudopotential on this center.
  102          6
                                   No pseudopotential on this center.
  103          6
                                   No pseudopotential on this center.
  104          6
                                   No pseudopotential on this center.
  105          6
                                   No pseudopotential on this center.
  106          6
                                   No pseudopotential on this center.
  107          1
                                   No pseudopotential on this center.
  108          1
                                   No pseudopotential on this center.
  109          1
                                   No pseudopotential on this center.
  110          1
                                   No pseudopotential on this center.
  111          6
                                   No pseudopotential on this center.
  112          6
                                   No pseudopotential on this center.
  113          6
                                   No pseudopotential on this center.
  114          6
                                   No pseudopotential on this center.
  115          1
                                   No pseudopotential on this center.
  116          1
                                   No pseudopotential on this center.
  117          1
                                   No pseudopotential on this center.
  118          1
                                   No pseudopotential on this center.
  119          6
                                   No pseudopotential on this center.
  120          6
                                   No pseudopotential on this center.
  121          6
                                   No pseudopotential on this center.
  122          6
                                   No pseudopotential on this center.
  123          1
                                   No pseudopotential on this center.
  124          1
                                   No pseudopotential on this center.
  125          1
                                   No pseudopotential on this center.
  126          1
                                   No pseudopotential on this center.
  127          6
                                   No pseudopotential on this center.
  128          6
                                   No pseudopotential on this center.
  129          6
                                   No pseudopotential on this center.
  130          6
                                   No pseudopotential on this center.
  131          6
                                   No pseudopotential on this center.
  132          6
                                   No pseudopotential on this center.
  133          6
                                   No pseudopotential on this center.
  134          6
                                   No pseudopotential on this center.
  135          6
                                   No pseudopotential on this center.
  136          6
                                   No pseudopotential on this center.
  137          6
                                   No pseudopotential on this center.
  138          6
                                   No pseudopotential on this center.
  139          6
                                   No pseudopotential on this center.
  140          6
                                   No pseudopotential on this center.
  141          6
                                   No pseudopotential on this center.
  142          6
                                   No pseudopotential on this center.
  143          1
                                   No pseudopotential on this center.
  144          1
                                   No pseudopotential on this center.
  145          1
                                   No pseudopotential on this center.
  146          1
                                   No pseudopotential on this center.
  147          6
                                   No pseudopotential on this center.
  148          6
                                   No pseudopotential on this center.
  149          6
                                   No pseudopotential on this center.
  150          6
                                   No pseudopotential on this center.
  151          1
                                   No pseudopotential on this center.
  152          1
                                   No pseudopotential on this center.
  153          1
                                   No pseudopotential on this center.
  154          1
                                   No pseudopotential on this center.
  155          8
                                   No pseudopotential on this center.
  156          8
                                   No pseudopotential on this center.
  157          8
                                   No pseudopotential on this center.
  158          8
                                   No pseudopotential on this center.
  159          8
                                   No pseudopotential on this center.
  160          8
                                   No pseudopotential on this center.
  161          8
                                   No pseudopotential on this center.
  162          8
                                   No pseudopotential on this center.
  163          8
                                   No pseudopotential on this center.
  164          8
                                   No pseudopotential on this center.
  165          8
                                   No pseudopotential on this center.
  166          8
[...]
    21  O   -0.091715
    22  O   -0.408265
    23  O   -0.089023
    24  O   -0.410310
    25  O   -0.136404
    26  O   -0.141559
    27  C   -0.015371
    28  C    0.003684
    29  C    0.008753
    30  C    0.048830
    31  C   -0.019148
    32  C    0.048148
    33  C   -0.009556
    34  C   -0.018843
    35  C    0.165387
    36  C    0.123992
    37  C    0.098310
    38  C    0.132164
    39  C    0.180743
    40  C    0.133725
    41  C    0.130207
    42  C    0.162659
    43  C    0.092542
    44  C    0.110418
    45  C    0.070373
    46  C    0.092726
    47  H   -0.143971
    48  H   -0.128506
    49  H   -0.159310
    50  H   -0.141704
    51  C    0.150506
    52  C    0.147088
    53  C    0.143163
    54  C    0.198077
    55  H   -0.130612
    56  H   -0.148645
    57  H   -0.126526
    58  H   -0.117828
    59  C    0.131183
    60  C    0.183991
    61  C    0.135433
    62  C    0.189093
    63  H   -0.134809
    64  H   -0.203663
    65  H   -0.128015
    66  H   -0.199624
    67  C    0.100105
    68  C    0.080524
    69  C    0.104926
    70  C    0.087940
    71  C    0.100180
    72  C    0.097199
    73  C    0.095020
    74  C    0.094192
    75  C    0.070544
    76  C    0.069367
    77  C    0.063923
    78  C    0.065412
    79  O   -0.178155
    80  O   -0.231076
    81  O   -0.278261
    82  O   -0.382487
    83  O   -0.196338
    84  O   -0.382189
    85  O   -0.225476
    86  O   -0.176255
    87  C    0.034151
    88  C    0.029917
    89  C    0.034921
    90  C    0.032700
    91  C   -0.001954
    92  C    0.036746
    93  C    0.023641
    94  C    0.005786
    95  C    0.060935
    96  C   -0.030301
    97  C   -0.021129
    98  C    0.034846
    99  C    0.065521
   100  C    0.068373
   101  C    0.060650
   102  C    0.060960
   103  C    0.119379
   104  C    0.061667
   105  C    0.123969
   106  C    0.070330
   107  H   -0.181821
   108  H   -0.155292
   109  H   -0.180284
   110  H   -0.152790
   111  C    0.143501
   112  C    0.131251
   113  C    0.158997
   114  C    0.073450
   115  H   -0.130101
   116  H   -0.119646
   117  H   -0.130227
   118  H   -0.149044
   119  C    0.103560
   120  C    0.162831
   121  C    0.102007
   122  C    0.165393
   123  H   -0.123959
   124  H   -0.184511
   125  H   -0.117154
   126  H   -0.195098
   127  C    0.118709
   128  C    0.097992
   129  C    0.096412
   130  C    0.180904
   131  C    0.107451
   132  C    0.210027
   133  C    0.226114
   134  C    0.046688
   135  C    0.022302
   136  C    0.033323
   137  C    0.021174
   138  C    0.033742
   139  C    0.174840
   140  C    0.103642
   141  C    0.181416
   142  C    0.121986
   143  H   -0.190443
   144  H   -0.142863
   145  H   -0.191122
   146  H   -0.132821
   147  C    0.091053
   148  C    0.092190
   149  C    0.081847
   150  C    0.088600
   151  H   -0.161113
   152  H   -0.147628
   153  H   -0.164445
   154  H   -0.149811
   155  O   -0.302872
   156  O   -0.321690
   157  O   -0.135283
   158  O   -0.431649
   159  O   -0.473155
   160  O   -0.131738
   161  O   -0.328314
   162  O   -0.292925
   163  O   -0.037610
   164  O   -0.081654
   165  O   -0.261369
   166  O   -0.320835
   167  O   -0.333595
   168  O   -0.272380
   169  O   -0.028917
   170  O   -0.053019
   171  C    0.147698
   172  C    0.105295
   173  C    0.147937
   174  C    0.108396
   175  H   -0.175080
   176  H   -0.135468
   177  H   -0.178689
   178  H   -0.141837
   179  C    0.069102
   180  C    0.061313
   181  C    0.071583
   182  C    0.075377
   183  H    0.012893
   184  H    0.000595
   185  H    0.006909
   186  H    0.075510
   187  H    0.022468
   188  H    0.082087
   189  H    0.035327
   190  H    0.018676
   191  H   -0.022186
   192  H    0.030227
   193  H    0.070676
   194  H    0.074094
   195  H    0.188244
   196  H    0.200550
   197  H    0.203479
   198  H    0.190897
   199  H    0.046785
   200  H    0.061980
   201  H    0.072219
   202  H    0.051953
   203  H    0.048698
   204  H    0.050930
   205  H    0.063288
   206  H    0.089021
   207  H    0.033359
   208  H    0.015536
   209  H    0.015381
   210  H   -0.000038
   211  H    0.202455
   212  H    0.226653
   213  H    0.218665
   214  H    0.217617
   215  H    0.232113
   216  H    0.213771
   217  H    0.258600
   218  H    0.234615
 Sum of Mulliken charges =  -0.00000
 Mulliken charges with hydrogens summed into heavy atoms:
               1
     1  Ba   0.709265
     2  Ba   0.686679
     3  C   -0.134902
     4  C   -0.138169
     5  C   -0.136889
     6  C   -0.133068
    11  C   -0.062971
    12  C   -0.081824
    13  C   -0.057275
    14  C   -0.030755
    19  O    0.073594
    20  O    0.103218
    21  O    0.126950
    22  O   -0.408265
    23  O    0.101875
    24  O   -0.410310
    25  O    0.081213
    26  O    0.061920
    27  C   -0.015371
    28  C    0.003684
    29  C    0.194421
    30  C    0.069227
    31  C   -0.019148
    32  C    0.079027
    33  C    0.165441
    34  C   -0.018843
    35  C    0.165387
    36  C    0.123992
    37  C    0.098310
    38  C    0.132164
    39  C    0.180743
    40  C    0.133725
    41  C    0.130207
    42  C    0.162659
    43  C   -0.051429
    44  C   -0.018088
    45  C   -0.088937
    46  C   -0.048977
    51  C    0.019895
    52  C   -0.001557
    53  C    0.016637
    54  C    0.080249
    59  C   -0.003625
    60  C   -0.019672
    61  C    0.007418
    62  C   -0.010531
    67  C    0.100105
    68  C    0.080524
    69  C    0.104926
    70  C    0.087940
    71  C    0.100180
    72  C    0.097199
    73  C    0.095020
    74  C    0.094192
    75  C    0.070544
    76  C    0.069367
    77  C    0.063923
    78  C    0.065412
    79  O   -0.178155
    80  O   -0.231076
    81  O   -0.278261
    82  O   -0.382487
    83  O   -0.196338
    84  O   -0.382189
    85  O   -0.225476
    86  O   -0.176255
    87  C    0.034151
    88  C    0.029917
    89  C    0.034921
    90  C    0.032700
    91  C   -0.001954
    92  C    0.216811
    93  C    0.204625
    94  C    0.005786
    95  C    0.092752
    96  C   -0.030301
    97  C   -0.021129
    98  C    0.186428
    99  C    0.065521
   100  C    0.068373
   101  C    0.060650
   102  C    0.060960
   103  C   -0.062442
   104  C   -0.093626
   105  C   -0.056315
   106  C   -0.082460
   111  C    0.013400
   112  C    0.011605
   113  C    0.028771
   114  C   -0.075594
   119  C   -0.020399
   120  C   -0.021681
   121  C   -0.015147
   122  C   -0.029705
   127  C    0.118709
   128  C    0.097992
   129  C    0.096412
   130  C    0.180904
   131  C    0.107451
   132  C    0.210027
   133  C    0.226114
   134  C    0.046688
   135  C    0.022302
   136  C    0.033323
   137  C    0.021174
   138  C    0.033742
   139  C   -0.015602
   140  C   -0.039221
   141  C   -0.009706
   142  C   -0.010835
   147  C   -0.070061
   148  C   -0.055438
   149  C   -0.082598
   150  C   -0.061212
   155  O   -0.302872
   156  O   -0.321690
   157  O    0.091370
   158  O   -0.431649
   159  O   -0.473155
   160  O    0.082033
   161  O   -0.328314
   162  O   -0.292925
   163  O    0.197005
   164  O    0.150459
   165  O   -0.261369
   166  O   -0.320835
   167  O   -0.333595
   168  O   -0.272380
   169  O    0.173538
   170  O    0.205581
   171  C   -0.027382
   172  C   -0.030173
   173  C   -0.030751
   174  C   -0.033441
   179  C    0.069102
   180  C    0.061313
   181  C    0.071583
   182  C    0.075377
 Electronic spatial extent (au):  <R**2>=        4095648.0523
 Charge=             -0.0000 electrons
 Dipole moment (field-independent basis, Debye):
    X=             -3.0715    Y=             17.9982    Z=             -5.9040  Tot=             19.1892
 Quadrupole moment (field-independent basis, Debye-Ang):
   XX=          -1050.6440   YY=             70.2074   ZZ=           -820.2696
   XY=            331.6446   XZ=           -148.5514   YZ=           -107.8486
 Traceless Quadrupole moment (field-independent basis, Debye-Ang):
   XX=           -450.4086   YY=            670.4428   ZZ=           -220.0342
   XY=            331.6446   XZ=           -148.5514   YZ=           -107.8486
 Octapole moment (field-independent basis, Debye-Ang**2):
  XXX=         -72138.6956  YYY=         -14045.3119  ZZZ=         -14474.5831  XYY=           -680.8499
  XXY=         -14146.7078  XXZ=          -9173.2911  XZZ=         -19975.5707  YZZ=         -17928.1890
  YYZ=          -5768.3805  XYZ=          -3141.4903
 Hexadecapole moment (field-independent basis, Debye-Ang**3):
 XXXX=       -3550222.9259 YYYY=        -908776.1557 ZZZZ=        -197924.6642 XXXY=       -1398193.2619
 XXXZ=        -493438.3052 YYYX=        -401230.5314 YYYZ=        -260613.9530 ZZZX=        -349008.8312
 ZZZY=        -320627.0997 XXYY=        -557672.6831 XXZZ=        -532709.3148 YYZZ=        -456401.9685
 XXYZ=        -206701.1540 YYXZ=        -149822.9800 ZZXY=        -444162.6861
 N-N= 3.195860498134D+04 E-N=-7.897999091562D+04  KE= 6.382845020884D+03
 Leave Link  601 at Fri May 23 13:16:08 2025, MaxMem= 17179869184 cpu:              50.9 elap:               1.3
 (Enter /opt/bwhpc/common/chem/gaussian/g16.C.01/x86_64-Intel-avx2-source/g16/l9999.exe)

 Test job not archived.
 1\1\GINC-N1810\SP\RCAM-B3LYP TD-FC\GenECP\C104H80Ba2O32\KA_SY8018\23-M
 ay-2025\0\\#p CAM-B3LYP/GenECP TD(Singlets,Nstates=10) Nosymm Empirica
 lDispersion=GD3BJ IOp(8/11=1)\\DimerA BaTBAPy_2metal - vertical excita
 tion energies to get MLCT in multiwfn\\0,1\Ba,0,22.4564040961,10.74377
 9046,5.2112780223\Ba,0,26.2610571123,32.3037801382,6.8630450294\C,0,22
 .4752980962,18.8261930805,4.3684900187\C,0,21.981117094,24.2938061039,
 8.3932650359\C,0,26.2421631123,18.8261930805,7.705833033\C,0,26.736343
 1144,24.2938061039,3.6810590157\H,0,21.8914970937,18.1019060774,4.4077
 320189\H,0,21.3973180915,25.018093107,8.4325060361\H,0,26.8259621148,1
 8.1019060774,7.6665920328\H,0,27.3201431169,25.018093107,3.6418170156\
 C,0,23.3835661,16.3079830698,3.2061350137\C,0,22.8893850979,26.8120161
 147,7.2309100309\C,0,25.3338951084,16.3079830698,8.8681880379\C,0,25.8
 280741105,26.8120161147,4.8434140207\H,0,22.679064097,16.6605110713,2.
 7144610116\H,0,22.1848830949,26.4594881132,6.7392350288\H,0,26.0383971
 114,16.6605110713,9.35986304\H,0,26.5325761135,26.4594881132,5.3350880
 228\O,0,15.8095990676,19.6584070841,6.5692370281\O,0,15.3154190655,23.
 4615921004,10.5940110453\O,0,27.8654191192,34.2415921465,10.5940110453
 \O,0,20.3578610871,8.878408038,5.5050870236\O,0,32.9078601408,19.65840
 70841,5.5050870236\O,0,28.3596001213,30.4384081302,6.5692370281\O,0,20
 .8520410892,12.6815920543,1.4803120063\O,0,33.4020421429,23.4615921004
 ,1.4803120063\C,0,17.7400130759,20.2513080866,5.3408760228\C,0,17.2458
 320738,22.8686900978,9.3656500401\C,0,29.7958341275,33.648689144,9.365
 6500401\C,0,18.4274460788,9.4713080405,6.7334480288\C,0,30.9774481325,
 20.2513080866,6.7334480288\C,0,30.2900121296,31.0313071328,5.340876022
 8\C,0,18.9216270809,12.0886920517,2.7086730116\C,0,31.4716261346,22.86
 86900978,2.7086730116\C,0,16.2691670696,20.3483280871,5.606511024\C,0,
 15.7749870675,22.7716710974,9.6312850412\C,0,28.3249871212,33.55167014
 35,9.6312850412\C,0,19.8982930851,9.5683280409,6.4678130277\C,0,32.448
 2921388,20.3483280871,6.4678130277\C,0,28.8191681233,31.1283261332,5.6
 06511024\C,0,20.3924730872,11.9916720513,2.4430380105\C,0,32.942474140
 9,22.7716710974,2.4430380105\C,0,18.5608270794,19.3824390829,6.0355520
 258\C,0,18.0666470773,23.7375601016,10.060326043\C,0,30.156633129,19.3
 824390829,6.0387710258\C,0,30.6508121311,23.7375601016,2.0139970086\H,
 0,18.1845860778,18.8166410805,6.6718610285\H,0,17.6904070757,24.303358
 104,10.6966350458\H,0,30.5328731306,18.8166410805,5.4024630231\H,0,31.
 0270541327,24.303358104,1.3776880059\C,0,23.5600571008,14.960484064,3.
 1996960137\C,0,23.0658780987,28.1595151205,7.2244700309\C,0,25.1574041
 076,14.960484064,8.874628038\C,0,25.6515851097,28.1595151205,4.8498530
 207\H,0,23.0149420985,14.4128380617,2.6820370115\H,0,22.5207610963,28.
 7071611228,6.7068120287\H,0,25.70251811,14.4128380617,9.3922860402\H,0
 ,26.1966971121,28.7071611228,5.367512023\C,0,19.6804870842,21.05549409
 01,4.1736910179\C,0,19.1863060821,22.0645050944,8.1984650351\C,0,29.03
 69741242,21.0554940901,7.9006330338\C,0,29.5311551263,22.0645050944,3.
 8758580166\H,0,20.0341070857,21.6071070924,3.513097015\H,0,19.53992708
 36,21.512892092,7.5378710322\H,0,28.6833531227,21.6071070924,8.5612270
 366\H,0,29.1775321248,21.512892092,4.5364520194\C,0,22.8014370975,21.1
 891690906,4.4924530192\C,0,22.3072570954,21.9308320938,8.5172280364\C,
 0,25.9160231109,21.1891690906,7.5818700324\C,0,26.410204113,21.9308320
 938,3.5570960152\C,0,24.539017105,23.4292531002,4.1600070178\C,0,24.04
 48361029,19.6907460842,8.184781035\C,0,24.1784461034,23.4292531002,7.9
 143170339\C,0,24.6726251056,19.6907460842,3.8895420166\C,0,21.98183109
 4,20.102543086,4.6260760198\C,0,21.4876500919,23.0174560985,8.65085003
 7\C,0,26.7356301144,20.102543086,7.4482480319\C,0,27.2298111165,23.017
 4560985,3.4234730146\O,0,15.6425490669,21.2279760908,5.0269430215\O,0,
 15.1483690648,21.8920230937,9.0517180387\O,0,27.6983681185,32.67202413
 98,9.0517180387\O,0,20.5249120878,10.4479760447,7.0473800301\O,0,33.07
 49091415,21.2279760908,7.0473800301\O,0,28.1925491206,32.0079771369,5.
 0269430215\O,0,21.0190910899,11.1120240475,3.0226060129\O,0,33.5690921
 436,21.8920230937,3.0226060129\C,0,25.0362971071,22.1378080947,3.95313
 40169\C,0,24.542116105,20.9821910898,7.9779080341\C,0,23.6811641013,22
 .1378080947,8.1211900347\C,0,24.1753441034,20.9821910898,4.0964150175\
 C,0,24.5782321051,14.4128600617,3.983722017\C,0,24.084051103,7.1471400
 306,8.0084960343\C,0,24.5782321051,35.9728581539,3.983722017\C,0,24.08
 4051103,28.7071381228,8.0084960343\C,0,24.6334101054,7.1471400306,4.06
 58270174\C,0,24.1392311033,14.4128600617,8.0906020346\C,0,24.633410105
 4,28.7071381228,4.0658270174\C,0,24.1392311033,35.9728581539,8.0906020
 346\C,0,23.7984701018,18.5998120796,4.0585820174\C,0,23.3042890997,24.
 5201871049,8.0833570346\C,0,24.9189911066,18.5998120796,8.0157410343\C
 ,0,25.4131721087,24.5201871049,3.9909670171\C,0,23.2012940993,23.59310
 71009,4.6292960198\C,0,22.7071130971,19.5268920835,8.654070037\C,0,25.
 5161671092,23.5931071009,7.4450280319\C,0,26.0103451113,19.5268920835,
 3.4202530146\H,0,22.8806080979,24.4463441046,4.8186690206\H,0,22.38642
 70958,18.6736550799,8.8434440378\H,0,25.8368531105,24.4463441046,7.255
 654031\H,0,26.3310341126,18.6736550799,3.2308800138\C,0,25.4580991089,
 15.2795720654,4.6880580201\C,0,24.9639191068,27.8404271191,8.712832037
 3\C,0,23.2593610995,15.2795720654,7.3862660316\C,0,23.7535421016,27.84
 04271191,3.3614910144\H,0,26.168562112,14.9328220639,5.1771800221\H,0,
 25.6743811098,28.1871781206,9.2019540394\H,0,22.5488990965,14.93282206
 39,6.8971430295\H,0,23.0430790986,28.1871781206,2.8723690123\C,0,18.35
 38950785,21.0943030902,4.429667019\C,0,17.8597160764,22.0256960942,8.4
 544410362\C,0,30.3635651299,21.0943030902,7.6446570327\C,0,30.85774413
 2,22.0256960942,3.6198820155\H,0,17.8310530763,21.7136780929,3.9732740
 17\H,0,17.3368720742,21.4063210916,7.9980480342\H,0,30.8864081321,21.7
 136780929,8.1010500347\H,0,31.3805891342,21.4063210916,4.0762750174\C,
 0,24.7498971059,12.9597160554,4.0779020174\C,0,24.2557161038,8.6002840
 368,8.1026760347\C,0,24.7498971059,34.5197141477,4.0779020174\C,0,24.2
 557161038,30.160282129,8.1026760347\C,0,24.4617441046,8.6002840368,3.9
 71647017\C,0,23.9675641025,12.9597160554,7.9964220342\C,0,24.461744104
 6,30.160282129,3.971647017\C,0,23.9675641025,34.5197141477,7.996422034
 2\C,0,20.5385930879,20.1974090864,4.8917110209\C,0,20.0444150858,22.92
 25900981,8.9164850381\C,0,28.1788651206,20.1974090864,7.1826130307\C,0
 ,28.6730461227,22.9225900981,3.1578380135\C,0,25.243546108,16.63353907
 12,4.6365400198\C,0,24.7493651059,26.4864601133,8.6613140371\C,0,23.47
 39151004,16.6335390712,7.4377830318\C,0,23.9680961025,26.4864601133,3.
 4130090146\H,0,25.8134841104,17.2024210736,5.1026730218\H,0,25.3193041
 083,25.9175781109,9.127448039\H,0,22.903976098,17.2024210736,6.9716500
 298\H,0,23.3981551001,25.9175781109,2.9468760126\C,0,22.3972210958,22.
 5301990964,4.7999460205\C,0,21.9030420937,20.5898000881,8.8247210378\C
 ,0,26.3202381126,22.5301990964,7.2743770311\C,0,26.8144191147,20.58980
 00881,3.2496030139\H,0,21.5411470922,22.669779097,5.133664022\H,0,21.0
 4696809,20.4502200875,9.1584390392\H,0,27.1763111163,22.669779097,6.94
 06590297\H,0,27.6704921184,20.4502200875,2.9158850125\O,0,24.053003102
 9,12.2072720522,3.2938760141\O,0,23.5588231008,9.35272804,7.3186500313
 \O,0,24.0530031029,33.7672691445,3.2938760141\O,0,23.5588231008,30.912
 7271322,7.3186500313\O,0,25.1586361076,9.35272804,4.7556730203\O,0,24.
 6644571055,12.2072720522,8.7804480376\O,0,25.1586361076,30.9127271322,
 4.7556730203\O,0,24.6644571055,33.7672691445,8.7804480376\O,0,25.60051
 51095,12.4875520534,4.8160450206\O,0,25.1063351074,9.0724480388,8.8408
 190378\O,0,25.6005151095,34.0475501457,4.8160450206\O,0,25.1063351074,
 30.632446131,8.8408190378\O,0,23.611126101,9.0724480388,3.2335040138\O
 ,0,23.1169450989,12.4875520534,7.2582780311\O,0,23.611126101,30.632446
 131,3.2335040138\O,0,23.1169450989,34.0475501457,7.2582780311\C,0,19.9
 185050852,19.3263840827,5.8125790249\C,0,19.4243260831,23.7936151018,9
 .8373540421\C,0,28.7989561232,19.3263840827,6.2617440268\C,0,29.293135
 1253,23.7936151018,2.2369690096\H,0,20.4331000874,18.70791208,6.276877
 0269\H,0,19.9389190853,24.4120861044,10.3016520441\H,0,28.284361121,18
 .70791208,5.7974460248\H,0,28.7785421231,24.4120861044,1.7726720076\C,
 0,24.1896171035,17.1725410735,3.8983960167\C,0,23.6954361014,25.947458
 111,7.9231710339\C,0,24.5278431049,17.1725410735,8.175927035\C,0,25.02
 2022107,25.947458111,4.1511520178\H,0,18.1244748484,8.4243371789,6.746
 0994212\H,0,18.1971401708,9.9297008117,7.6951832692\H,0,17.8737167235,
 9.9957860372,5.9547270689\H,0,24.5502692453,6.7772263242,7.0953113902\
 H,0,24.5601784054,6.6662582644,8.8629884494\H,0,23.0216794754,6.903390
 5347,8.0011234791\H,0,23.6813201179,6.646497103,3.8898026967\H,0,25.36
 36519157,6.8184226265,3.3263711148\H,0,24.9993366769,6.8816879448,5.05
 76617416\H,0,18.5828847931,13.1034653376,2.4998939457\H,0,18.388148478
 2,11.3784344586,2.0769811133\H,0,18.742519052,11.8553951128,3.75824106
 77\H,0,14.3889681481,23.2423009505,10.7172955105\H,0,15.597042409,18.7
 77291415,6.252926425\H,0,33.165066844,23.0502600787,0.6458996846\H,0,3
 2.4724636847,18.802827306,5.5020731585\H,0,24.1976060727,36.23193818,2
 .9957435118\H,0,23.862823268,36.3100396634,4.7337879247\H,0,25.5336412
 887,36.4677232906,4.1580835136\H,0,23.1601567406,36.4513928946,8.11336
 22443\H,0,24.7055997795,36.3267720719,7.2291662389\H,0,24.6747328686,3
 6.2111433859,9.0096004793\H,0,29.9494615302,34.1163991557,8.3931550306
 \H,0,30.2365203911,32.6517897242,9.3750128317\H,0,30.2681652744,34.251
 0582862,10.1416365641\H,0,30.5483761671,30.0070361108,5.0721430081\H,0
 ,30.848021773,31.3155998653,6.2330101077\H,0,30.5544711766,31.70971257
 62,4.5297486107\H,0,23.5107836343,30.0730326489,2.4598222123\H,0,24.63
 70918728,33.2257509504,2.7579721879\H,0,26.9192346592,34.0946239561,10
 .6627763501\H,0,20.5878271629,12.2878107124,0.645611931\H,0,25.7109630
 926,9.6115123508,8.3256166789\H,0,24.1704613824,11.4099653894,8.985061
 628\H,0,23.5282744934,33.4771625688,6.604774392\H,0,25.6062385254,11.5
 308567417,4.7366806883\\Version=ES64L-G16RevC.01\HF=-6461.475165\RMSD=
 7.168e-09\PG=C01 [X(C104H80Ba2O32)]\\@


 If your ship doesn't come in, swim out to it!
                          -- Jonathan Winters
 Job cpu time:       4 days  7 hours 56 minutes  6.3 seconds.
 Elapsed time:       0 days  2 hours 12 minutes  1.2 seconds.
 File lengths (MBytes):  RWF=  40144 Int=      0 D2E=      0 Chk=   2241 Scr=      1
 Normal termination of Gaussian 16 at Fri May 23 13:16:10 2025.
